 Entering Gaussian System, Link 0=g09
 Initial command:
 /usr/local/gaussian//g09/l1.exe /net-scratch/ostueker/Gau-6937.inp -scrdir=/net-scratch/ostueker/
 Entering Link 1 = /usr/local/gaussian//g09/l1.exe PID=      6938.
  
 Copyright (c) 1988,1990,1992,1993,1995,1998,2003,2009,2011,
            Gaussian, Inc.  All Rights Reserved.
  
 This is part of the Gaussian(R) 09 program.  It is based on
 the Gaussian(R) 03 system (copyright 2003, Gaussian, Inc.),
 the Gaussian(R) 98 system (copyright 1998, Gaussian, Inc.),
 the Gaussian(R) 94 system (copyright 1995, Gaussian, Inc.),
 the Gaussian 92(TM) system (copyright 1992, Gaussian, Inc.),
 the Gaussian 90(TM) system (copyright 1990, Gaussian, Inc.),
 the Gaussian 88(TM) system (copyright 1988, Gaussian, Inc.),
 the Gaussian 86(TM) system (copyright 1986, Carnegie Mellon
 University), and the Gaussian 82(TM) system (copyright 1983,
 Carnegie Mellon University). Gaussian is a federally registered
 trademark of Gaussian, Inc.
  
 This software contains proprietary and confidential information,
 including trade secrets, belonging to Gaussian, Inc.
  
 This software is provided under written license and may be
 used, copied, transmitted, or stored only in accord with that
 written license.
  
 The following legend is applicable only to US Government
 contracts under FAR:
  
                    RESTRICTED RIGHTS LEGEND
  
 Use, reproduction and disclosure by the US Government is
 subject to restrictions as set forth in subparagraphs (a)
 and (c) of the Commercial Computer Software - Restricted
 Rights clause in FAR 52.227-19.
  
 Gaussian, Inc.
 340 Quinnipiac St., Bldg. 40, Wallingford CT 06492
  
  
 ---------------------------------------------------------------
 Warning -- This program may not be used in any manner that
 competes with the business of Gaussian, Inc. or will provide
 assistance to any competitor of Gaussian, Inc.  The licensee
 of this program is prohibited from giving any competitor of
 Gaussian, Inc. access to this program.  By using this program,
 the user acknowledges that Gaussian, Inc. is engaged in the
 business of creating and licensing software in the field of
 computational chemistry and represents and warrants to the
 licensee that it is not a competitor of Gaussian, Inc. and that
 it will not use this program in any manner prohibited above.
 ---------------------------------------------------------------
  

 Cite this work as:
 Gaussian 09, Revision C.01,
 M. J. Frisch, G. W. Trucks, H. B. Schlegel, G. E. Scuseria, 
 M. A. Robb, J. R. Cheeseman, G. Scalmani, V. Barone, B. Mennucci, 
 G. A. Petersson, H. Nakatsuji, M. Caricato, X. Li, H. P. Hratchian, 
 A. F. Izmaylov, J. Bloino, G. Zheng, J. L. Sonnenberg, M. Hada, 
 M. Ehara, K. Toyota, R. Fukuda, J. Hasegawa, M. Ishida, T. Nakajima, 
 Y. Honda, O. Kitao, H. Nakai, T. Vreven, J. A. Montgomery, Jr., 
 J. E. Peralta, F. Ogliaro, M. Bearpark, J. J. Heyd, E. Brothers, 
 K. N. Kudin, V. N. Staroverov, T. Keith, R. Kobayashi, J. Normand, 
 K. Raghavachari, A. Rendell, J. C. Burant, S. S. Iyengar, J. Tomasi, 
 M. Cossi, N. Rega, J. M. Millam, M. Klene, J. E. Knox, J. B. Cross, 
 V. Bakken, C. Adamo, J. Jaramillo, R. Gomperts, R. E. Stratmann, 
 O. Yazyev, A. J. Austin, R. Cammi, C. Pomelli, J. W. Ochterski, 
 R. L. Martin, K. Morokuma, V. G. Zakrzewski, G. A. Voth, 
 P. Salvador, J. J. Dannenberg, S. Dapprich, A. D. Daniels, 
 O. Farkas, J. B. Foresman, J. V. Ortiz, J. Cioslowski, 
 and D. J. Fox, Gaussian, Inc., Wallingford CT, 2010.
 
 ******************************************
 Gaussian 09:  AM64L-G09RevC.01 23-Sep-2011
                21-Jun-2016 
 ******************************************
 %CHK=output.chk
 Default route:  MaxDisk=200GB
 --------------------------------------------------------
 #N B3LYP/6-31G(d) OPT GFINPUT POP=FULL Geom=Connectivity
 --------------------------------------------------------
 1/14=-1,18=20,19=15,26=3,38=1,57=2/1,3;
 2/9=110,12=2,17=6,18=5,40=1/2;
 3/5=1,6=6,7=1,11=2,16=1,24=10,25=1,30=1,71=1,74=-5/1,2,3;
 4//1;
 5/5=2,38=5/2;
 6/7=3,28=1/1;
 7//1,2,3,16;
 1/14=-1,18=20,19=15/3(2);
 2/9=110/2;
 99//99;
 2/9=110/2;
 3/5=1,6=6,7=1,11=2,16=1,25=1,30=1,71=1,74=-5/1,2,3;
 4/5=5,16=3/1;
 5/5=2,38=5/2;
 7//1,2,3,16;
 1/14=-1,18=20,19=15/3(-5);
 2/9=110/2;
 6/7=3,19=2,28=1/1;
 99/9=1/99;
 ----
 CH4O
 ----
 Charge =  0 Multiplicity = 1
 Symbolic Z-Matrix:
 C
 O                    1    B1
 H                    2    B2       1    A1
 H                    1    B3       2    A2       3    D1       0
 H                    1    B4       2    A3       3    D2       0
 H                    1    B5       2    A4       3    D3       0
       Variables:
  B1                    1.5                      
  B2                    1.05                     
  B3                    1.09                     
  B4                    1.09                     
  B5                    1.09                     
  A1                  109.47123                  
  A2                  109.47127                  
  A3                  109.47121                  
  A4                  109.47124                  
  D1                    1.2642                   
  D2                 -118.73583                  
  D3                  121.26422                  
 
     4 tetrahedral angles replaced.

 GradGradGradGradGradGradGradGradGradGradGradGradGradGradGradGradGradGrad
 Berny optimization.
 Initialization pass.
                           ----------------------------
                           !    Initial Parameters    !
                           ! (Angstroms and Degrees)  !
 --------------------------                            --------------------------
 ! Name  Definition              Value          Derivative Info.                !
 --------------------------------------------------------------------------------
 ! R1    R(1,2)                  1.5            estimate D2E/DX2                !
 ! R2    R(1,4)                  1.09           estimate D2E/DX2                !
 ! R3    R(1,5)                  1.09           estimate D2E/DX2                !
 ! R4    R(1,6)                  1.09           estimate D2E/DX2                !
 ! R5    R(2,3)                  1.05           estimate D2E/DX2                !
 ! A1    A(2,1,4)              109.4712         estimate D2E/DX2                !
 ! A2    A(2,1,5)              109.4712         estimate D2E/DX2                !
 ! A3    A(2,1,6)              109.4712         estimate D2E/DX2                !
 ! A4    A(4,1,5)              109.4712         estimate D2E/DX2                !
 ! A5    A(4,1,6)              109.4712         estimate D2E/DX2                !
 ! A6    A(5,1,6)              109.4712         estimate D2E/DX2                !
 ! A7    A(1,2,3)              109.4712         estimate D2E/DX2                !
 ! D1    D(4,1,2,3)              1.2642         estimate D2E/DX2                !
 ! D2    D(5,1,2,3)           -118.7358         estimate D2E/DX2                !
 ! D3    D(6,1,2,3)            121.2642         estimate D2E/DX2                !
 --------------------------------------------------------------------------------
 Trust Radius=3.00D-01 FncErr=1.00D-07 GrdErr=1.00D-06
 Number of steps in this run=     25 maximum allowed number of steps=    100.
 GradGradGradGradGradGradGradGradGradGradGradGradGradGradGradGradGradGrad

                          Input orientation:                          
 ---------------------------------------------------------------------
 Center     Atomic      Atomic             Coordinates (Angstroms)
 Number     Number       Type             X           Y           Z
 ---------------------------------------------------------------------
      1          6           0        0.000000    0.000000    0.000000
      2          8           0        0.000000    0.000000    1.499999
      3          1           0        0.989950    0.000000    1.849999
      4          1           0        1.027412   -0.022673   -0.363333
      5          1           0       -0.494071    0.901101   -0.363334
      6          1           0       -0.533341   -0.878428   -0.363333
 ---------------------------------------------------------------------
                    Distance matrix (angstroms):
                    1          2          3          4          5
     1  C    0.000000
     2  O    1.499999   0.000000
     3  H    2.098213   1.050000   0.000000
     4  H    1.090000   2.127933   2.213766   0.000000
     5  H    1.090001   2.127933   2.813031   1.779964   0.000000
     6  H    1.090000   2.127932   2.826816   1.779963   1.779962
                    6
     6  H    0.000000
 Stoichiometry    CH4O
 Framework group  C1[X(CH4O)]
 Deg. of freedom    12
 Full point group                 C1      NOp   1
 Largest Abelian subgroup         C1      NOp   1
 Largest concise Abelian subgroup C1      NOp   1
                         Standard orientation:                         
 ---------------------------------------------------------------------
 Center     Atomic      Atomic             Coordinates (Angstroms)
 Number     Number       Type             X           Y           Z
 ---------------------------------------------------------------------
      1          6           0       -0.710679    0.021974    0.000000
      2          8           0        0.780526   -0.140214    0.000000
      3          1           0        1.235513    0.806088    0.000001
      4          1           0       -0.960793    1.082648   -0.022672
      5          1           0       -1.125304   -0.429916    0.901101
      6          1           0       -1.129550   -0.468954   -0.878428
 ---------------------------------------------------------------------
 Rotational constants (GHZ):    123.6781704     22.6048406     21.7364516
 Standard basis: 6-31G(d) (6D, 7F)
 AO basis set in the form of general basis input (Overlap normalization):
      1 0
 S   6 1.00       0.000000000000
      0.3047524880D+04  0.1834737132D-02
      0.4573695180D+03  0.1403732281D-01
      0.1039486850D+03  0.6884262226D-01
      0.2921015530D+02  0.2321844432D+00
      0.9286662960D+01  0.4679413484D+00
      0.3163926960D+01  0.3623119853D+00
 SP   3 1.00       0.000000000000
      0.7868272350D+01 -0.1193324198D+00  0.6899906659D-01
      0.1881288540D+01 -0.1608541517D+00  0.3164239610D+00
      0.5442492580D+00  0.1143456438D+01  0.7443082909D+00
 SP   1 1.00       0.000000000000
      0.1687144782D+00  0.1000000000D+01  0.1000000000D+01
 D   1 1.00       0.000000000000
      0.8000000000D+00  0.1000000000D+01
 ****
      2 0
 S   6 1.00       0.000000000000
      0.5484671660D+04  0.1831074430D-02
      0.8252349460D+03  0.1395017220D-01
      0.1880469580D+03  0.6844507810D-01
      0.5296450000D+02  0.2327143360D+00
      0.1689757040D+02  0.4701928980D+00
      0.5799635340D+01  0.3585208530D+00
 SP   3 1.00       0.000000000000
      0.1553961625D+02 -0.1107775495D+00  0.7087426823D-01
      0.3599933586D+01 -0.1480262627D+00  0.3397528391D+00
      0.1013761750D+01  0.1130767015D+01  0.7271585773D+00
 SP   1 1.00       0.000000000000
      0.2700058226D+00  0.1000000000D+01  0.1000000000D+01
 D   1 1.00       0.000000000000
      0.8000000000D+00  0.1000000000D+01
 ****
      3 0
 S   3 1.00       0.000000000000
      0.1873113696D+02  0.3349460434D-01
      0.2825394365D+01  0.2347269535D+00
      0.6401216923D+00  0.8137573261D+00
 S   1 1.00       0.000000000000
      0.1612777588D+00  0.1000000000D+01
 ****
      4 0
 S   3 1.00       0.000000000000
      0.1873113696D+02  0.3349460434D-01
      0.2825394365D+01  0.2347269535D+00
      0.6401216923D+00  0.8137573261D+00
 S   1 1.00       0.000000000000
      0.1612777588D+00  0.1000000000D+01
 ****
      5 0
 S   3 1.00       0.000000000000
      0.1873113696D+02  0.3349460434D-01
      0.2825394365D+01  0.2347269535D+00
      0.6401216923D+00  0.8137573261D+00
 S   1 1.00       0.000000000000
      0.1612777588D+00  0.1000000000D+01
 ****
      6 0
 S   3 1.00       0.000000000000
      0.1873113696D+02  0.3349460434D-01
      0.2825394365D+01  0.2347269535D+00
      0.6401216923D+00  0.8137573261D+00
 S   1 1.00       0.000000000000
      0.1612777588D+00  0.1000000000D+01
 ****

 There are    38 symmetry adapted basis functions of A   symmetry.
 Integral buffers will be    131072 words long.
 Raffenetti 2 integral format.
 Two-electron integral symmetry is turned on.
    38 basis functions,    72 primitive gaussians,    38 cartesian basis functions
     9 alpha electrons        9 beta electrons
       nuclear repulsion energy        38.6920312372 Hartrees.
 NAtoms=    6 NActive=    6 NUniq=    6 SFac= 1.00D+00 NAtFMM=   60 NAOKFM=F Big=F
 One-electron integrals computed using PRISM.
 NBasis=    38 RedAO= T  NBF=    38
 NBsUse=    38 1.00D-06 NBFU=    38
 Harris functional with IExCor=  402 diagonalized for initial guess.
 ExpMin= 1.61D-01 ExpMax= 5.48D+03 ExpMxC= 8.25D+02 IAcc=1 IRadAn=         1 AccDes= 0.00D+00
 HarFok:  IExCor=  402 AccDes= 0.00D+00 IRadAn=         1 IDoV= 1
 ScaDFX=  1.000000  1.000000  1.000000  1.000000
 FoFCou: FMM=F IPFlag=           0 FMFlag=      100000 FMFlg1=           0
         NFxFlg=           0 DoJE=T BraDBF=F KetDBF=T FulRan=T
         Omega=  0.000000  0.000000  1.000000  0.000000  0.000000 ICntrl=     500 IOpCl=  0
         NMat0=    1 NMatS0=    1 NMatT0=    0 NMatD0=    1 NMtDS0=    0 NMtDT0=    0
         I1Cent=           4 NGrid=           0.
 Petite list used in FoFCou.
 Initial guess orbital symmetries:
       Occupied  (A) (A) (A) (A) (A) (A) (A) (A) (A)
       Virtual   (A) (A) (A) (A) (A) (A) (A) (A) (A) (A) (A) (A)
                 (A) (A) (A) (A) (A) (A) (A) (A) (A) (A) (A) (A)
                 (A) (A) (A) (A) (A)
 The electronic state of the initial guess is 1-A.
 Requested convergence on RMS density matrix=1.00D-08 within 128 cycles.
 Requested convergence on MAX density matrix=1.00D-06.
 Requested convergence on             energy=1.00D-06.
 No special actions if energy rises.
 Keep R1 ints in memory in canonical form, NReq=1206170.
 Integral accuracy reduced to 1.0D-05 until final iterations.
 Initial convergence to 1.0D-05 achieved.  Increase integral accuracy.
 SCF Done:  E(RB3LYP) =  -115.703460990     A.U. after   11 cycles
             Convg  =    0.7543D-08             -V/T =  2.0106

 **********************************************************************

            Population analysis using the SCF density.

 **********************************************************************

 Orbital symmetries:
       Occupied  (A) (A) (A) (A) (A) (A) (A) (A) (A)
       Virtual   (A) (A) (A) (A) (A) (A) (A) (A) (A) (A) (A) (A)
                 (A) (A) (A) (A) (A) (A) (A) (A) (A) (A) (A) (A)
                 (A) (A) (A) (A) (A)
 The electronic state is 1-A.
 Alpha  occ. eigenvalues --  -19.14129 -10.22751  -0.96915  -0.67766  -0.47840
 Alpha  occ. eigenvalues --   -0.42866  -0.41542  -0.32372  -0.25950
 Alpha virt. eigenvalues --    0.04966   0.12377   0.15421   0.17601   0.18951
 Alpha virt. eigenvalues --    0.51959   0.55747   0.56371   0.77401   0.85486
 Alpha virt. eigenvalues --    0.86081   0.88851   0.93698   0.97493   1.02873
 Alpha virt. eigenvalues --    1.14986   1.44762   1.49584   1.56232   1.78114
 Alpha virt. eigenvalues --    1.95391   2.12742   2.14946   2.20189   2.32549
 Alpha virt. eigenvalues --    2.41435   2.75123   3.65486   4.22432
     Molecular Orbital Coefficients:
                           1         2         3         4         5
                           O         O         O         O         O
     Eigenvalues --   -19.14129 -10.22751  -0.96915  -0.67766  -0.47840
   1 1   C  1S          0.00002   0.99292  -0.07005  -0.18334  -0.01189
   2        2S          0.00011   0.04890   0.13335   0.36858   0.02271
   3        2PX         0.00029   0.00037   0.08700  -0.08240  -0.18246
   4        2PY        -0.00007   0.00002  -0.00320   0.00366   0.25523
   5        2PZ         0.00000   0.00000  -0.00004  -0.00014  -0.00070
   6        3S         -0.00168  -0.01396   0.06138   0.33985   0.02198
   7        3PX        -0.00072   0.00022   0.00237  -0.03884  -0.06918
   8        3PY         0.00027  -0.00007  -0.00122   0.00860   0.10684
   9        3PZ         0.00001   0.00000   0.00014   0.00003   0.00006
  10        4XX         0.00043  -0.00911   0.01661  -0.01273  -0.01836
  11        4YY         0.00009  -0.00907  -0.00475   0.00473   0.01744
  12        4ZZ         0.00003  -0.00908  -0.00594   0.00388  -0.00061
  13        4XY        -0.00004   0.00001  -0.00131   0.00094   0.00624
  14        4XZ         0.00000   0.00000   0.00000   0.00001  -0.00005
  15        4YZ         0.00000   0.00000  -0.00001   0.00001  -0.00062
  16 2   O  1S          0.99288  -0.00012  -0.20513   0.06420   0.03580
  17        2S          0.02601  -0.00026   0.45518  -0.14621  -0.08216
  18        2PX        -0.00041   0.00009  -0.05214  -0.14578   0.27499
  19        2PY         0.00091   0.00001   0.08684  -0.06293   0.30801
  20        2PZ         0.00000   0.00000   0.00001  -0.00002  -0.00026
  21        3S          0.01054   0.00245   0.45580  -0.18880  -0.13087
  22        3PX        -0.00029  -0.00039  -0.02779  -0.07312   0.13773
  23        3PY        -0.00006   0.00000   0.05095  -0.03403   0.17287
  24        3PZ         0.00000   0.00000  -0.00002  -0.00002  -0.00021
  25        4XX        -0.00784  -0.00080   0.01037   0.01374  -0.01149
  26        4YY        -0.00778  -0.00014   0.01186  -0.01017   0.02722
  27        4ZZ        -0.00774  -0.00016  -0.01195   0.00224  -0.00223
  28        4XY         0.00001   0.00009   0.00523  -0.01063   0.00496
  29        4XZ         0.00000   0.00000   0.00000   0.00000   0.00002
  30        4YZ         0.00000   0.00000   0.00000   0.00000  -0.00003
  31 3   H  1S          0.00037  -0.00011   0.11388  -0.09137   0.20543
  32        2S         -0.00099   0.00023   0.00654  -0.02898   0.14693
  33 4   H  1S          0.00002  -0.00015   0.02878   0.14145   0.17856
  34        2S          0.00012   0.00270   0.00831   0.04023   0.13156
  35 5   H  1S          0.00012  -0.00015   0.02596   0.14180  -0.00679
  36        2S          0.00008   0.00269   0.00287   0.04064  -0.00733
  37 6   H  1S          0.00012  -0.00015   0.02592   0.14203  -0.01072
  38        2S          0.00008   0.00269   0.00304   0.04090  -0.00962
                           6         7         8         9        10
                           O         O         O         O         V
     Eigenvalues --    -0.42866  -0.41542  -0.32372  -0.25950   0.04966
   1 1   C  1S         -0.00010   0.00024  -0.01505   0.00003   0.00631
   2        2S          0.00018  -0.00015   0.03660  -0.00009   0.00607
   3        2PX        -0.00079  -0.27719   0.15457   0.00003   0.19718
   4        2PY        -0.00004  -0.31665  -0.22160  -0.00004  -0.11071
   5        2PZ         0.43848  -0.00072  -0.00008  -0.15738   0.00159
   6        3S          0.00044  -0.00174   0.03994  -0.00002  -0.29482
   7        3PX        -0.00041  -0.12902   0.07238   0.00010   0.45445
   8        3PY         0.00045  -0.14325  -0.06395   0.00030  -0.29822
   9        3PZ         0.19955  -0.00069   0.00026  -0.00658   0.00517
  10        4XX        -0.00007  -0.01503   0.01269   0.00000  -0.01095
  11        4YY        -0.00107  -0.00804  -0.01703   0.00055   0.01455
  12        4ZZ         0.00113   0.02315   0.00427  -0.00057   0.00536
  13        4XY        -0.00011   0.01320   0.02000   0.00006  -0.00342
  14        4XZ        -0.01196   0.00015   0.00008   0.03070  -0.00008
  15        4YZ        -0.01718   0.00109   0.00071   0.00671  -0.00007
  16 2   O  1S          0.00004  -0.01668   0.06792   0.00000   0.09154
  17        2S         -0.00010   0.02827  -0.13076   0.00002  -0.12211
  18        2PX         0.00094   0.32803  -0.24252  -0.00003   0.00181
  19        2PY         0.00059  -0.03037   0.44326  -0.00024  -0.28689
  20        2PZ         0.20803  -0.00034   0.00005   0.61448  -0.00045
  21        3S         -0.00007   0.08119  -0.33297  -0.00009  -1.01247
  22        3PX         0.00052   0.19041  -0.16999  -0.00003   0.01823
  23        3PY         0.00028  -0.02186   0.30309  -0.00024  -0.43125
  24        3PZ         0.12851  -0.00014   0.00002   0.47450  -0.00099
  25        4XX        -0.00003  -0.00914   0.01039   0.00000   0.03707
  26        4YY         0.00000   0.00035   0.03264   0.00004   0.02390
  27        4ZZ         0.00004  -0.00062   0.00261  -0.00003   0.04320
  28        4XY         0.00004   0.02274  -0.01072   0.00001   0.00574
  29        4XZ        -0.01084   0.00002   0.00001  -0.00630  -0.00001
  30        4YZ         0.00814   0.00004   0.00005   0.02439  -0.00008
  31 3   H  1S          0.00047   0.08672   0.14809   0.00000   0.15821
  32        2S          0.00029   0.07243   0.13422   0.00008   1.11510
  33 4   H  1S         -0.00548  -0.15427  -0.17942   0.00324   0.03671
  34        2S         -0.00478  -0.13236  -0.19952   0.00402   0.56412
  35 5   H  1S          0.21771   0.14735   0.04821  -0.12705  -0.01014
  36        2S          0.16425   0.11775   0.04523  -0.17188   0.08154
  37 6   H  1S         -0.21174   0.15584   0.05413   0.12383  -0.01063
  38        2S         -0.15941   0.12397   0.05212   0.16786   0.07890
                          11        12        13        14        15
                           V         V         V         V         V
     Eigenvalues --     0.12377   0.15421   0.17601   0.18951   0.51959
   1 1   C  1S         -0.16671  -0.03040   0.00011  -0.02316   0.02616
   2        2S          0.23482   0.05483  -0.00059   0.05641  -0.31798
   3        2PX        -0.02427   0.34349  -0.00096   0.18202  -0.94564
   4        2PY         0.00454   0.23066   0.01074  -0.35658   0.10505
   5        2PZ        -0.00026  -0.00474   0.43863   0.01066   0.00204
   6        3S          2.48818   0.10103   0.00128   0.07073   0.41477
   7        3PX        -0.12092   1.04905  -0.00171   0.53653   1.54118
   8        3PY        -0.01466   0.69186   0.03408  -1.10731  -0.20058
   9        3PZ        -0.00040  -0.01459   1.34466   0.02943  -0.00349
  10        4XX        -0.01959  -0.02734   0.00011  -0.01980   0.02471
  11        4YY        -0.00456   0.00542   0.00052   0.02001  -0.00457
  12        4ZZ        -0.00803   0.02345  -0.00076   0.00117  -0.00912
  13        4XY         0.00010   0.00921   0.00010   0.00709  -0.00531
  14        4XZ         0.00000   0.00007   0.00192  -0.00002  -0.00007
  15        4YZ        -0.00004   0.00043   0.01804  -0.00055  -0.00043
  16 2   O  1S          0.04086   0.04059  -0.00022   0.00939   0.00004
  17        2S         -0.03422  -0.06591   0.00058  -0.01328   0.17763
  18        2PX         0.14299   0.32827  -0.00171   0.26554  -0.23746
  19        2PY        -0.06970   0.02355  -0.00265   0.18608   0.09002
  20        2PZ        -0.00003   0.00087  -0.09485  -0.00175   0.00038
  21        3S         -0.51928  -0.47833   0.00137  -0.08046  -0.87956
  22        3PX         0.28922   0.58444  -0.00394   0.47512   0.33312
  23        3PY        -0.10229  -0.00561  -0.00591   0.34975  -0.02174
  24        3PZ         0.00005   0.00222  -0.19621  -0.00417   0.00038
  25        4XX         0.02974   0.00340   0.00001   0.00052  -0.08973
  26        4YY         0.01631   0.00623   0.00013   0.01646   0.09440
  27        4ZZ         0.02102   0.01946  -0.00020  -0.00421   0.09416
  28        4XY         0.00654   0.00085  -0.00033   0.01361   0.00837
  29        4XZ         0.00001   0.00010  -0.00672  -0.00025  -0.00004
  30        4YZ         0.00000   0.00027   0.00526  -0.00033  -0.00005
  31 3   H  1S          0.04404  -0.06998   0.00008  -0.04916   0.00666
  32        2S          0.18763  -0.42432   0.00455  -0.78396  -0.21055
  33 4   H  1S         -0.01353  -0.02834  -0.00073   0.10256   0.14009
  34        2S         -1.08794  -0.80864  -0.00711   1.57698   0.10220
  35 5   H  1S         -0.02965   0.06296  -0.08340  -0.00697   0.11539
  36        2S         -1.11799   0.78244  -1.54553  -0.53609   0.06408
  37 6   H  1S         -0.02994   0.06365   0.08337  -0.00662   0.11322
  38        2S         -1.12027   0.79012   1.54625  -0.51878   0.06253
                          16        17        18        19        20
                           V         V         V         V         V
     Eigenvalues --     0.55747   0.56371   0.77401   0.85486   0.86081
   1 1   C  1S         -0.00019   0.00012   0.00998   0.02821   0.00071
   2        2S         -0.01110  -0.00047   0.03395   0.11456  -0.00097
   3        2PX        -0.12249  -0.00054  -0.00525   0.11598   0.00355
   4        2PY        -0.71763   0.00863  -0.25910   0.77364   0.01314
   5        2PZ        -0.00936  -0.74420  -0.00514  -0.01585   0.83969
   6        3S          0.03666  -0.00033  -0.28994  -0.45697  -0.00261
   7        3PX         0.24506   0.00153   0.15995  -0.06857  -0.00273
   8        3PY         1.59950  -0.02073   0.63821  -1.35234  -0.02379
   9        3PZ         0.02143   1.69580   0.00778   0.02695  -1.43105
  10        4XX         0.00339  -0.00008  -0.07538  -0.01011  -0.00031
  11        4YY        -0.09584   0.00720   0.03466  -0.08843   0.00616
  12        4ZZ         0.08845  -0.00702   0.02569   0.13150  -0.00544
  13        4XY         0.03474   0.00031  -0.06897   0.11352   0.00277
  14        4XZ         0.00128   0.04362  -0.00060  -0.00191   0.14974
  15        4YZ         0.00790   0.09903  -0.00013   0.00546   0.12119
  16 2   O  1S         -0.00941   0.00008   0.01643   0.00032   0.00002
  17        2S          0.09473   0.00089  -0.05780   0.32857   0.00195
  18        2PX         0.04778  -0.00001   0.03186   0.08748  -0.00134
  19        2PY        -0.08893   0.00273  -0.48812  -0.30414  -0.01058
  20        2PZ        -0.00284  -0.21403   0.00062   0.00536  -0.24587
  21        3S         -0.12370  -0.00271   0.21144  -0.50775  -0.00132
  22        3PX        -0.00967   0.00063  -0.22429  -0.14991   0.00000
  23        3PY        -0.14074   0.00123   0.15027   0.39593   0.01188
  24        3PZ        -0.00188  -0.15063  -0.00111  -0.00742   0.35327
  25        4XX         0.02037   0.00011  -0.00564   0.10344   0.00059
  26        4YY        -0.00588   0.00152   0.11355   0.13254   0.00120
  27        4ZZ         0.04951  -0.00059  -0.06232   0.08443   0.00071
  28        4XY        -0.02638   0.00039   0.12088  -0.06056  -0.00027
  29        4XZ         0.00012   0.00148   0.00048   0.00125  -0.07580
  30        4YZ         0.00098   0.01081   0.00053  -0.00085  -0.00767
  31 3   H  1S         -0.21052   0.00211   1.03202   0.01800   0.00522
  32        2S          0.06935  -0.00289  -0.98517   0.03561  -0.00546
  33 4   H  1S         -0.45916   0.01698   0.20427  -0.50039   0.00997
  34        2S         -0.37579   0.01523  -0.41559   1.54118  -0.01165
  35 5   H  1S          0.22109  -0.39991   0.08940   0.53450  -0.66877
  36        2S          0.17020  -0.38564   0.25867  -0.73669   1.45100
  37 6   H  1S          0.24899   0.38482   0.07840   0.53620   0.67443
  38        2S          0.19388   0.37216   0.29236  -0.74159  -1.44521
                          21        22        23        24        25
                           V         V         V         V         V
     Eigenvalues --     0.88851   0.93698   0.97493   1.02873   1.14986
   1 1   C  1S         -0.08635   0.01088   0.00011  -0.06030  -0.01949
   2        2S          0.18371  -0.91298   0.00333  -1.67542  -0.33236
   3        2PX        -0.31745   0.32835  -0.00052   0.08587  -0.03361
   4        2PY         0.25604   0.08384   0.00024  -0.00770  -0.06047
   5        2PZ        -0.00033  -0.00370  -0.06929   0.00020  -0.00483
   6        3S         -0.12106   2.23653  -0.00814   3.82576   1.05662
   7        3PX         0.11127  -0.31861   0.00095  -0.63924   0.24467
   8        3PY        -0.24653   0.06000  -0.00256  -0.04898  -0.60433
   9        3PZ         0.00155   0.00693  -0.41162  -0.00118   0.01596
  10        4XX         0.03898   0.00360   0.00013  -0.20417   0.09806
  11        4YY        -0.12148  -0.12134  -0.00697  -0.03105   0.05589
  12        4ZZ         0.01636   0.03965   0.00735  -0.08694  -0.15993
  13        4XY         0.00720  -0.00404  -0.00074   0.04166   0.14547
  14        4XZ         0.00088   0.00027  -0.01295  -0.00035  -0.00108
  15        4YZ         0.00518   0.00531  -0.13001  -0.00245  -0.01106
  16 2   O  1S         -0.00028  -0.00391  -0.00002  -0.00610  -0.01402
  17        2S         -0.57570  -0.68287   0.00246  -0.03744  -0.31189
  18        2PX         0.10511  -0.50024   0.00049   0.51778  -0.40856
  19        2PY        -0.00358   0.24673  -0.00173  -0.10771  -0.72424
  20        2PZ        -0.00147  -0.00201  -0.90201  -0.00053   0.00226
  21        3S          1.02506   1.14512  -0.00391  -0.18252   0.59694
  22        3PX        -0.06384   0.75303  -0.00075  -0.57244   1.00023
  23        3PY         0.00629  -0.29778   0.00285   0.16235   1.36192
  24        3PZ         0.00131   0.00174   1.14120   0.00085  -0.00479
  25        4XX        -0.21571  -0.24692   0.00099  -0.15547  -0.06274
  26        4YY        -0.10721  -0.17733  -0.00033   0.04305  -0.18639
  27        4ZZ        -0.17134  -0.22459   0.00143   0.07100  -0.01980
  28        4XY        -0.00108   0.00068  -0.00024  -0.00854  -0.07860
  29        4XZ        -0.00011   0.00034   0.06329   0.00007  -0.00078
  30        4YZ        -0.00007   0.00030  -0.00030  -0.00025  -0.00151
  31 3   H  1S          0.29167   0.26567  -0.00209  -0.14967  -0.36091
  32        2S         -0.58446  -0.60131   0.00266   0.20129  -0.74842
  33 4   H  1S         -0.93516  -0.06011  -0.00562   0.00885   0.07036
  34        2S          0.90539  -0.32040   0.00539  -1.03869   0.13193
  35 5   H  1S         -0.47201   0.35225   0.26240  -0.08281  -0.21580
  36        2S          0.13168  -0.84110  -0.11443  -1.02396  -0.17672
  37 6   H  1S         -0.45912   0.35748  -0.25646  -0.08559  -0.22587
  38        2S          0.11390  -0.83935   0.11515  -1.02476  -0.15910
                          26        27        28        29        30
                           V         V         V         V         V
     Eigenvalues --     1.44762   1.49584   1.56232   1.78114   1.95391
   1 1   C  1S         -0.07482   0.00021   0.04073  -0.00009   0.03783
   2        2S         -0.96895   0.00231   0.44448  -0.00055  -0.23058
   3        2PX         0.11481  -0.00024  -0.08670   0.00031  -0.27187
   4        2PY         0.06546   0.00141   0.10629  -0.00042   0.03539
   5        2PZ         0.00084  -0.13359   0.00018  -0.01094  -0.00039
   6        3S          3.49066  -0.00935  -1.77853   0.00314  -0.38246
   7        3PX         0.78748  -0.00263  -0.44469  -0.00125   0.30248
   8        3PY        -0.06061   0.00062  -0.27615  -0.01799   0.00740
   9        3PZ        -0.00215   0.08737   0.00846  -0.26150  -0.00337
  10        4XX         0.05916  -0.00198  -0.14172   0.00141   0.74231
  11        4YY        -0.17442  -0.02406  -0.17301  -0.00241  -0.33420
  12        4ZZ         0.09108   0.02595   0.31523   0.00103  -0.42667
  13        4XY        -0.36319  -0.01002  -0.47108   0.00759  -0.16058
  14        4XZ        -0.00030   0.58129  -0.00603   0.18475   0.00111
  15        4YZ         0.01448  -0.45551   0.02423   0.11352   0.00028
  16 2   O  1S          0.07653  -0.00023  -0.05151   0.00007   0.02757
  17        2S          1.14829  -0.00251  -0.75023   0.00207  -0.43662
  18        2PX        -0.30425   0.00145   0.13586  -0.00035   0.35958
  19        2PY         0.02066   0.00024  -0.14754  -0.00155  -0.04248
  20        2PZ        -0.00025   0.03164   0.00059  -0.02738  -0.00045
  21        3S         -3.23486   0.00767   2.06224  -0.00486   0.41326
  22        3PX         1.26746  -0.00493  -0.57812   0.00162  -0.35516
  23        3PY        -0.13700   0.00110   0.58417   0.00343   0.07892
  24        3PZ         0.00080  -0.15032  -0.00102   0.02833   0.00117
  25        4XX         0.58863  -0.00024  -0.23467  -0.00106   0.42546
  26        4YY         0.17608  -0.00813  -0.60575   0.00497  -0.12137
  27        4ZZ         0.21444   0.00589   0.22846  -0.00273  -0.36912
  28        4XY         0.28527   0.00518   0.34155  -0.00791  -0.01574
  29        4XZ         0.00209  -0.54940   0.00811  -0.03353  -0.00174
  30        4YZ         0.00328  -0.09157   0.00759   0.97313   0.00019
  31 3   H  1S          0.09581  -0.00039  -0.30789   0.00053  -0.03656
  32        2S          0.03673   0.00156  -0.11901   0.00092  -0.05049
  33 4   H  1S         -0.39257  -0.00314   0.14388   0.00629   0.24201
  34        2S         -0.37787   0.00416   0.43702   0.00563   0.01035
  35 5   H  1S         -0.26364   0.10605   0.16400   0.13453   0.30401
  36        2S         -0.42722  -0.11684   0.09123   0.11129   0.02308
  37 6   H  1S         -0.25976  -0.09992   0.17029  -0.14189   0.30081
  38        2S         -0.43212   0.11506   0.09191  -0.11793   0.02173
                          31        32        33        34        35
                           V         V         V         V         V
     Eigenvalues --     2.12742   2.14946   2.20189   2.32549   2.41435
   1 1   C  1S          0.00689   0.00072   0.01408   0.00014   0.02055
   2        2S          0.08268   0.01009   0.16762   0.00105   0.16770
   3        2PX        -0.00186  -0.00219  -0.03773  -0.00063  -0.08578
   4        2PY         0.11374  -0.00273   0.06111  -0.00272  -0.05221
   5        2PZ        -0.00609  -0.10847   0.00545  -0.09036   0.00326
   6        3S         -0.30206  -0.03433  -0.61669  -0.00499  -0.75850
   7        3PX        -0.04386  -0.01698  -0.22903  -0.00257  -0.31625
   8        3PY         0.65390  -0.04855  -0.20401  -0.00334  -0.23489
   9        3PZ        -0.03890  -0.70592   0.04150  -0.03362   0.00627
  10        4XX        -0.06872  -0.01808  -0.29876   0.00326  -0.10320
  11        4YY         0.76911   0.02722   0.35223   0.01178  -0.44859
  12        4ZZ        -0.69719  -0.00968  -0.06205  -0.01485   0.54823
  13        4XY         0.14367  -0.04352  -0.71058   0.02415   0.44110
  14        4XZ        -0.00366  -0.04530   0.01924   0.90013  -0.01406
  15        4YZ        -0.00877   0.86802  -0.05908   0.43872   0.01455
  16 2   O  1S         -0.01232  -0.00216  -0.03376  -0.00023  -0.03710
  17        2S         -0.17352  -0.02172  -0.40296  -0.00175  -0.41184
  18        2PX        -0.00935  -0.00304  -0.03903   0.00023   0.00059
  19        2PY         0.07718  -0.01605  -0.16895   0.00072  -0.07177
  20        2PZ        -0.00663  -0.12505   0.00846   0.04564   0.00023
  21        3S          0.48171   0.06511   1.14575   0.00577   1.19081
  22        3PX        -0.08358   0.00359   0.00315  -0.00241  -0.17508
  23        3PY        -0.12628   0.06028   0.73789  -0.00124   0.47019
  24        3PZ         0.01838   0.36015  -0.02512  -0.15483  -0.00009
  25        4XX         0.04510  -0.01713  -0.18767   0.00201   0.02057
  26        4YY        -0.07534   0.04214   0.58655  -0.00392   0.40432
  27        4ZZ        -0.06230  -0.04054  -0.64266   0.00041  -0.66833
  28        4XY         0.67266  -0.03935  -0.20170   0.01564   0.65307
  29        4XZ        -0.03127  -0.65165   0.05125   0.60253  -0.00698
  30        4YZ         0.00666  -0.12142   0.00659  -0.18544  -0.00116
  31 3   H  1S         -0.25409  -0.03884  -0.67413  -0.00439  -0.80750
  32        2S         -0.00831  -0.00444  -0.07729   0.00232   0.12066
  33 4   H  1S         -0.59900   0.00549  -0.26763   0.00492   0.47631
  34        2S         -0.05374   0.01805   0.28396  -0.00047  -0.00369
  35 5   H  1S          0.32164   0.50156   0.12113   0.46114  -0.21327
  36        2S          0.08439   0.09931  -0.02429  -0.17464   0.12301
  37 6   H  1S          0.28636  -0.50610   0.17817  -0.46555  -0.20062
  38        2S          0.07704  -0.10346  -0.01656   0.17626   0.11798
                          36        37        38
                           V         V         V
     Eigenvalues --     2.75123   3.65486   4.22432
   1 1   C  1S          0.09301  -0.07210  -0.47462
   2        2S         -0.25313   0.69259   2.86161
   3        2PX        -0.63127  -0.04653  -0.08410
   4        2PY         0.06920  -0.00212   0.01086
   5        2PZ         0.00001  -0.00057   0.00011
   6        3S         -1.67827  -0.97307   2.37191
   7        3PX        -0.80959  -0.52778  -0.09488
   8        3PY         0.15506   0.01925   0.02971
   9        3PZ        -0.00111   0.00297  -0.00068
  10        4XX        -0.84599  -0.25030  -1.99690
  11        4YY         0.57758  -0.32642  -1.81686
  12        4ZZ         0.54395  -0.34835  -1.81647
  13        4XY         0.18738  -0.03515   0.03072
  14        4XZ         0.00025  -0.00006   0.00003
  15        4YZ        -0.00082  -0.00051  -0.00002
  16 2   O  1S         -0.06646  -0.48734   0.09401
  17        2S         -0.63194   0.06457  -0.04915
  18        2PX         0.09490   0.12060  -0.06367
  19        2PY         0.04004  -0.09378   0.02673
  20        2PZ        -0.00008   0.00012  -0.00003
  21        3S          2.07356   4.32810  -1.00171
  22        3PX        -1.38681  -0.55709  -0.04058
  23        3PY        -0.04717   0.33563  -0.07854
  24        3PZ         0.00027  -0.00056   0.00012
  25        4XX         0.94405  -1.43496   0.63215
  26        4YY        -0.74005  -1.64115   0.21966
  27        4ZZ        -0.56918  -1.72264   0.25682
  28        4XY        -0.28334   0.00081  -0.06567
  29        4XZ        -0.00008   0.00027  -0.00005
  30        4YZ         0.00003   0.00007  -0.00002
  31 3   H  1S          0.21307   0.03622   0.04293
  32        2S          0.06426  -0.48638   0.08816
  33 4   H  1S         -0.06626   0.10900   0.11559
  34        2S          0.12235   0.08732  -0.54690
  35 5   H  1S         -0.03741   0.14080   0.11359
  36        2S          0.16579  -0.01979  -0.51957
  37 6   H  1S         -0.03785   0.14127   0.11352
  38        2S          0.16590  -0.01722  -0.52002
     Density Matrix:
                           1         2         3         4         5
   1 1   C  1S          2.04956
   2        2S         -0.05836   0.31576
   3        2PX         0.01831  -0.03439   0.29676
   4        2PY        -0.00040  -0.00269   0.01274   0.42907
   5        2PZ        -0.00003   0.00004  -0.00005   0.00011   0.43408
   6        3S         -0.16266   0.26945  -0.04005  -0.00328   0.00026
   7        3PX         0.01375  -0.02578   0.12596   0.01402  -0.00011
   8        3PY        -0.00380   0.00622   0.01903   0.17367   0.00036
   9        3PZ        -0.00008   0.00016   0.00015   0.00033   0.17707
  10        4XX        -0.01570  -0.00574   0.02394  -0.00567  -0.00001
  11        4YY        -0.01898   0.00088  -0.00878   0.02161  -0.00113
  12        4ZZ        -0.01872   0.00067  -0.01297  -0.01680   0.00114
  13        4XY        -0.00089   0.00209  -0.00379  -0.01402  -0.00015
  14        4XZ         0.00000   0.00000  -0.00002  -0.00015  -0.02015
  15        4YZ         0.00000   0.00002  -0.00013  -0.00132  -0.01718
  16 2   O  1S          0.00209  -0.00058  -0.02851   0.00039  -0.00001
  17        2S         -0.00478   0.00029   0.07720  -0.00588   0.00001
  18        2PX         0.06186  -0.12673  -0.34223   0.03938   0.00006
  19        2PY        -0.00975   0.02322   0.06694  -0.02101   0.00015
  20        2PZ         0.00000  -0.00005   0.00002  -0.00001  -0.01098
  21        3S          0.02340  -0.04771   0.01025   0.02506   0.00010
  22        3PX         0.03186  -0.06760  -0.20116   0.02470   0.00004
  23        3PY        -0.00792   0.01855   0.05720  -0.03282   0.00006
  24        3PZ         0.00001  -0.00007  -0.00001  -0.00008  -0.03665
  25        4XX        -0.00812   0.01306   0.01201  -0.00465   0.00000
  26        4YY         0.00016  -0.00073   0.00370  -0.00094  -0.00005
  27        4ZZ         0.00052  -0.00146  -0.00049  -0.00181   0.00005
  28        4XY         0.00356  -0.00700  -0.01506  -0.00723   0.00000
  29        4XZ         0.00000   0.00000   0.00000   0.00000  -0.00752
  30        4YZ         0.00000   0.00000   0.00000  -0.00007  -0.00054
  31 3   H  1S          0.00804  -0.01684  -0.04239  -0.01709  -0.00001
  32        2S          0.00266  -0.00312  -0.04637  -0.03061  -0.00009
  33 4   H  1S         -0.05512   0.10695  -0.05340   0.26921  -0.00586
  34        2S         -0.00774   0.02354  -0.04148   0.23964  -0.00543
  35 5   H  1S         -0.05720   0.11471  -0.08351  -0.11728   0.23066
  36        2S         -0.01113   0.03402  -0.05509  -0.09808   0.19796
  37 6   H  1S         -0.05726   0.11493  -0.08431  -0.12728  -0.22493
  38        2S         -0.01132   0.03448  -0.05505  -0.10624  -0.19282
                           6         7         8         9        10
   6        3S          0.24309
   7        3PX        -0.02292   0.05637
   8        3PY         0.00578   0.01225   0.07220
   9        3PZ         0.00024   0.00004   0.00035   0.07973
  10        4XX        -0.00610   0.00932  -0.00150   0.00000   0.00249
  11        4YY         0.00232  -0.00320   0.00830  -0.00043  -0.00094
  12        4ZZ         0.00239  -0.00561  -0.00723   0.00043  -0.00070
  13        4XY         0.00231  -0.00145  -0.00499  -0.00005  -0.00019
  14        4XZ         0.00000   0.00000  -0.00005  -0.00518   0.00000
  15        4YZ         0.00001  -0.00008  -0.00055  -0.00695   0.00001
  16 2   O  1S          0.02217   0.00180   0.00588   0.00003  -0.00669
  17        2S         -0.05774  -0.00138  -0.01254  -0.00004   0.01771
  18        2PX        -0.11392  -0.14673  -0.00659  -0.00020  -0.02414
  19        2PY         0.01694   0.03469   0.01653   0.00057   0.00534
  20        2PZ         0.00014   0.00009   0.00059   0.07494  -0.00001
  21        3S         -0.10511  -0.03423  -0.01299  -0.00021   0.01382
  22        3PX        -0.06129  -0.08725  -0.00457  -0.00014  -0.01415
  23        3PY         0.01502   0.02848   0.00373   0.00034   0.00456
  24        3PZ         0.00007   0.00006   0.00039   0.04505  -0.00001
  25        4XX         0.01102   0.00445  -0.00096   0.00001   0.00096
  26        4YY        -0.00162   0.00173   0.00133   0.00002   0.00047
  27        4ZZ         0.00020   0.00062  -0.00057   0.00002  -0.00029
  28        4XY        -0.00730  -0.00725  -0.00428  -0.00002  -0.00069
  29        4XZ        -0.00001   0.00000  -0.00002  -0.00424   0.00000
  30        4YZ         0.00001   0.00000   0.00000   0.00293   0.00000
  31 3   H  1S         -0.02756  -0.02173  -0.00174   0.00020  -0.00028
  32        2S         -0.00197  -0.01731  -0.00704   0.00010  -0.00322
  33 4   H  1S          0.09373  -0.02172   0.10765  -0.00207  -0.00911
  34        2S          0.01859  -0.01601   0.09222  -0.00187  -0.00671
  35 5   H  1S          0.10280  -0.04120  -0.04734   0.08840  -0.00573
  36        2S          0.03093  -0.02614  -0.04035   0.06768  -0.00313
  37 6   H  1S          0.10284  -0.04160  -0.05160  -0.08631  -0.00564
  38        2S          0.03126  -0.02611  -0.04358  -0.06597  -0.00302
                          11        12        13        14        15
  11        4YY         0.00158
  12        4ZZ        -0.00028   0.00138
  13        4XY        -0.00065   0.00080   0.00123
  14        4XZ         0.00005  -0.00005   0.00001   0.00217
  15        4YZ        -0.00002   0.00001   0.00005   0.00082   0.00068
  16 2   O  1S          0.00194   0.00276   0.00330   0.00000   0.00002
  17        2S         -0.00456  -0.00624  -0.00698  -0.00001  -0.00003
  18        2PX         0.01169   0.01227   0.00225   0.00000  -0.00001
  19        2PY        -0.00528   0.00048   0.02043   0.00000   0.00015
  20        2PZ         0.00023  -0.00024   0.00002   0.03276   0.00110
  21        3S         -0.00069  -0.00585  -0.01436  -0.00003  -0.00014
  22        3PX         0.00711   0.00697  -0.00012   0.00000  -0.00002
  23        3PY        -0.00475   0.00050   0.01351   0.00000   0.00015
  24        3PZ         0.00024  -0.00025   0.00003   0.02606   0.00195
  25        4XX        -0.00056  -0.00032   0.00003   0.00000   0.00001
  26        4YY        -0.00038   0.00004   0.00161   0.00000   0.00001
  27        4ZZ        -0.00002   0.00016   0.00010   0.00000   0.00000
  28        4XY         0.00002   0.00081   0.00020   0.00000   0.00003
  29        4XZ         0.00002  -0.00002   0.00000  -0.00013   0.00029
  30        4YZ         0.00001  -0.00001   0.00000   0.00130   0.00005
  31 3   H  1S         -0.00122   0.00297   0.01031   0.00001   0.00012
  32        2S         -0.00095   0.00401   0.00904   0.00002   0.00015
  33 4   H  1S          0.01591  -0.00815  -0.00883   0.00024  -0.00058
  34        2S          0.01378  -0.00784  -0.00978   0.00028  -0.00052
  35 5   H  1S         -0.00376   0.00867   0.00587  -0.01295  -0.00879
  36        2S         -0.00393   0.00665   0.00484  -0.01444  -0.00762
  37 6   H  1S         -0.00303   0.00787   0.00641   0.01273   0.00937
  38        2S         -0.00327   0.00588   0.00536   0.01417   0.00809
                          16        17        18        19        20
  16 2   O  1S          2.07636
  17        2S         -0.17846   0.50778
  18        2PX        -0.02234   0.03193   0.53203
  19        2PY         0.04138  -0.07075  -0.05623   0.60756
  20        2PZ         0.00001   0.00001  -0.00003  -0.00014   0.84172
  21        3S         -0.24762   0.58387   0.15030  -0.27779  -0.00014
  22        3PX        -0.01814   0.02866   0.30734  -0.07304  -0.00004
  23        3PY         0.02888  -0.05258  -0.06167   0.38965  -0.00022
  24        3PZ         0.00001   0.00000   0.00001  -0.00018   0.63661
  25        4XX        -0.01716   0.00367  -0.02244   0.00274   0.00001
  26        4YY        -0.01526   0.00037   0.00110   0.04901   0.00003
  27        4ZZ        -0.00997  -0.01229  -0.00229  -0.00140  -0.00001
  28        4XY        -0.00534   0.01115   0.02540  -0.00559   0.00001
  29        4XZ         0.00000   0.00000   0.00000   0.00001  -0.01226
  30        4YZ         0.00000   0.00000  -0.00001   0.00002   0.03336
  31 3   H  1S         -0.02578   0.06283   0.11281   0.28384   0.00005
  32        2S          0.01797  -0.04077   0.07100   0.20988   0.00011
  33 4   H  1S         -0.00004  -0.00631   0.03976  -0.05250   0.00169
  34        2S         -0.01128   0.01889   0.06969  -0.09143   0.00295
  35 5   H  1S          0.00895  -0.02103   0.02592   0.01659  -0.06565
  36        2S          0.00589  -0.01327   0.03946   0.02409  -0.14296
  37 6   H  1S          0.00921  -0.02146   0.02557   0.01824   0.06399
  38        2S          0.00641  -0.01419   0.03821   0.02786   0.13990
                          21        22        23        24        25
  21        3S          0.75619
  22        3PX         0.11034   0.18049
  23        3PY        -0.19134  -0.06160   0.25196
  24        3PZ        -0.00009  -0.00001  -0.00021   0.48333
  25        4XX        -0.00130  -0.01276   0.00285   0.00000   0.00136
  26        4YY        -0.01432  -0.00263   0.03108   0.00002   0.00013
  27        4ZZ        -0.01316  -0.00139  -0.00053  -0.00001   0.00005
  28        4XY         0.01832   0.01493  -0.00452   0.00001  -0.00094
  29        4XZ         0.00000   0.00000   0.00001  -0.00877   0.00000
  30        4YZ        -0.00002  -0.00001   0.00001   0.02524   0.00000
  31 3   H  1S          0.00002   0.04630   0.17482   0.00002  -0.00339
  32        2S         -0.09919   0.02630   0.13163   0.00008  -0.00256
  33 4   H  1S          0.02052   0.02914  -0.04698   0.00162  -0.00053
  34        2S          0.06935   0.04731  -0.07157   0.00255  -0.00348
  35 5   H  1S         -0.03628   0.01591   0.01361  -0.06466   0.00289
  36        2S         -0.02179   0.02152   0.01743  -0.12092   0.00012
  37 6   H  1S         -0.03793   0.01556   0.01510   0.06305   0.00297
  38        2S         -0.02472   0.02051   0.02021   0.11830   0.00023
                          26        27        28        29        30
  26        4YY         0.00422
  27        4ZZ        -0.00016   0.00044
  28        4XY        -0.00007  -0.00028   0.00159
  29        4XZ         0.00000   0.00000   0.00000   0.00031
  30        4YZ         0.00000   0.00000   0.00000  -0.00048   0.00132
  31 3   H  1S          0.02546  -0.00339   0.00594   0.00000   0.00002
  32        2S          0.01757  -0.00031   0.00256   0.00000   0.00002
  33 4   H  1S         -0.00430  -0.00160  -0.00410   0.00008   0.00003
  34        2S         -0.00658  -0.00148  -0.00120   0.00005   0.00008
  35 5   H  1S          0.00060   0.00014   0.00287  -0.00311  -0.00264
  36        2S          0.00186   0.00026   0.00349  -0.00139  -0.00570
  37 6   H  1S          0.00079   0.00013   0.00305   0.00304   0.00261
  38        2S          0.00222   0.00025   0.00358   0.00135   0.00561
                          31        32        33        34        35
  31 3   H  1S          0.18594
  32        2S          0.11947   0.09147
  33 4   H  1S         -0.02583  -0.02586   0.21750
  34        2S         -0.03346  -0.03630   0.17135   0.15274
  35 5   H  1S          0.01725   0.02452  -0.02678  -0.05129   0.21680
  36        2S          0.02419   0.02480  -0.04643  -0.05077   0.16602
  37 6   H  1S          0.01841   0.02596  -0.02654  -0.05080  -0.03075
  38        2S          0.02605   0.02672  -0.04581  -0.04992  -0.05862
                          36        37        38
  36        2S          0.14830
  37 6   H  1S         -0.05868   0.21669
  38        2S         -0.07266   0.16535   0.14691
    Full Mulliken population analysis:
                           1         2         3         4         5
   1 1   C  1S          2.04956
   2        2S         -0.01278   0.31576
   3        2PX         0.00000   0.00000   0.29676
   4        2PY         0.00000   0.00000   0.00000   0.42907
   5        2PZ         0.00000   0.00000   0.00000   0.00000   0.43408
   6        3S         -0.02997   0.21887   0.00000   0.00000   0.00000
   7        3PX         0.00000   0.00000   0.07177   0.00000   0.00000
   8        3PY         0.00000   0.00000   0.00000   0.09895   0.00000
   9        3PZ         0.00000   0.00000   0.00000   0.00000   0.10089
  10        4XX        -0.00124  -0.00408   0.00000   0.00000   0.00000
  11        4YY        -0.00150   0.00063   0.00000   0.00000   0.00000
  12        4ZZ        -0.00148   0.00047   0.00000   0.00000   0.00000
  13        4XY         0.00000   0.00000   0.00000   0.00000   0.00000
  14        4XZ         0.00000   0.00000   0.00000   0.00000   0.00000
  15        4YZ         0.00000   0.00000   0.00000   0.00000   0.00000
  16 2   O  1S          0.00000   0.00000  -0.00037   0.00000   0.00000
  17        2S          0.00000   0.00002   0.00940   0.00008   0.00000
  18        2PX        -0.00015   0.01191   0.05249   0.00079   0.00000
  19        2PY         0.00000   0.00024   0.00134  -0.00061   0.00000
  20        2PZ         0.00000   0.00000   0.00000   0.00000  -0.00034
  21        3S          0.00077  -0.01092   0.00252  -0.00067   0.00000
  22        3PX        -0.00288   0.02957   0.06618   0.00133   0.00000
  23        3PY        -0.00008   0.00088   0.00309  -0.00531   0.00000
  24        3PZ         0.00000   0.00000   0.00000   0.00000  -0.00615
  25        4XX        -0.00018   0.00315   0.00396   0.00024   0.00000
  26        4YY         0.00000  -0.00004   0.00036   0.00000   0.00000
  27        4ZZ         0.00000  -0.00008  -0.00005   0.00002   0.00000
  28        4XY        -0.00001   0.00024   0.00086   0.00079   0.00000
  29        4XZ         0.00000   0.00000   0.00000   0.00000   0.00088
  30        4YZ         0.00000   0.00000   0.00000   0.00000  -0.00001
  31 3   H  1S          0.00000  -0.00015  -0.00076  -0.00012   0.00000
  32        2S          0.00004  -0.00036  -0.00512  -0.00136   0.00000
  33 4   H  1S         -0.00180   0.02927   0.00453   0.09676   0.00005
  34        2S         -0.00071   0.01121   0.00253   0.06197   0.00003
  35 5   H  1S         -0.00187   0.03140   0.01173   0.01796   0.07043
  36        2S         -0.00103   0.01620   0.00557   0.01081   0.04349
  37 6   H  1S         -0.00187   0.03145   0.01197   0.02117   0.06695
  38        2S         -0.00104   0.01642   0.00562   0.01272   0.04130
                           6         7         8         9        10
   6        3S          0.24309
   7        3PX         0.00000   0.05637
   8        3PY         0.00000   0.00000   0.07220
   9        3PZ         0.00000   0.00000   0.00000   0.07973
  10        4XX        -0.00384   0.00000   0.00000   0.00000   0.00249
  11        4YY         0.00146   0.00000   0.00000   0.00000  -0.00031
  12        4ZZ         0.00151   0.00000   0.00000   0.00000  -0.00023
  13        4XY         0.00000   0.00000   0.00000   0.00000   0.00000
  14        4XZ         0.00000   0.00000   0.00000   0.00000   0.00000
  15        4YZ         0.00000   0.00000   0.00000   0.00000   0.00000
  16 2   O  1S          0.00070   0.00013  -0.00005   0.00000  -0.00008
  17        2S         -0.01117  -0.00052   0.00052   0.00000   0.00267
  18        2PX         0.01367   0.02015  -0.00017   0.00000   0.00502
  19        2PY         0.00022   0.00091   0.00167   0.00000   0.00016
  20        2PZ         0.00000   0.00000   0.00000   0.00777   0.00000
  21        3S         -0.04380  -0.02032   0.00084   0.00000   0.00397
  22        3PX         0.02876   0.02296  -0.00033   0.00000   0.00602
  23        3PY         0.00077   0.00207   0.00148   0.00000   0.00031
  24        3PZ         0.00000   0.00000   0.00000   0.01826   0.00000
  25        4XX         0.00332   0.00183   0.00006   0.00000   0.00040
  26        4YY        -0.00034   0.00068  -0.00003   0.00000   0.00005
  27        4ZZ         0.00004   0.00025   0.00002   0.00000  -0.00003
  28        4XY         0.00013   0.00014   0.00060   0.00000   0.00006
  29        4XZ         0.00000   0.00000   0.00000   0.00061   0.00000
  30        4YZ         0.00000   0.00000   0.00000   0.00005   0.00000
  31 3   H  1S         -0.00218  -0.00418  -0.00013   0.00000   0.00000
  32        2S         -0.00054  -0.00699  -0.00114   0.00000  -0.00042
  33 4   H  1S          0.03534   0.00257   0.05395   0.00002  -0.00123
  34        2S          0.01310   0.00214   0.05228   0.00002  -0.00239
  35 5   H  1S          0.03876   0.00807   0.01011   0.03764  -0.00095
  36        2S          0.02179   0.00579   0.00975   0.03260  -0.00114
  37 6   H  1S          0.03877   0.00823   0.01197   0.03582  -0.00095
  38        2S          0.02202   0.00585   0.01144   0.03098  -0.00110
                          11        12        13        14        15
  11        4YY         0.00158
  12        4ZZ        -0.00009   0.00138
  13        4XY         0.00000   0.00000   0.00123
  14        4XZ         0.00000   0.00000   0.00000   0.00217
  15        4YZ         0.00000   0.00000   0.00000   0.00000   0.00068
  16 2   O  1S          0.00000   0.00000  -0.00001   0.00000   0.00000
  17        2S         -0.00008  -0.00010   0.00018   0.00000   0.00000
  18        2PX        -0.00034  -0.00032   0.00009   0.00000   0.00000
  19        2PY         0.00002   0.00000   0.00111   0.00000   0.00000
  20        2PZ         0.00000   0.00000   0.00000   0.00194  -0.00001
  21        3S         -0.00010  -0.00081   0.00040   0.00000   0.00000
  22        3PX        -0.00218  -0.00211  -0.00001   0.00000   0.00000
  23        3PY        -0.00005   0.00002   0.00230   0.00000   0.00000
  24        3PZ         0.00000   0.00000   0.00000   0.00461  -0.00004
  25        4XX        -0.00006  -0.00003   0.00000   0.00000   0.00000
  26        4YY        -0.00001   0.00000   0.00002   0.00000   0.00000
  27        4ZZ         0.00000   0.00001   0.00000   0.00000   0.00000
  28        4XY         0.00000  -0.00001  -0.00004   0.00000   0.00000
  29        4XZ         0.00000   0.00000   0.00000   0.00003   0.00001
  30        4YZ         0.00000   0.00000   0.00000   0.00004   0.00000
  31 3   H  1S         -0.00001   0.00001   0.00011   0.00000   0.00000
  32        2S         -0.00008   0.00030   0.00035   0.00000   0.00000
  33 4   H  1S          0.00697  -0.00096   0.00116   0.00000   0.00001
  34        2S          0.00589  -0.00276   0.00030   0.00000   0.00000
  35 5   H  1S         -0.00066   0.00303   0.00054   0.00239   0.00177
  36        2S         -0.00143   0.00270   0.00011   0.00063   0.00036
  37 6   H  1S         -0.00056   0.00266   0.00065   0.00231   0.00199
  38        2S         -0.00120   0.00237   0.00013   0.00061   0.00041
                          16        17        18        19        20
  16 2   O  1S          2.07636
  17        2S         -0.04170   0.50778
  18        2PX         0.00000   0.00000   0.53203
  19        2PY         0.00000   0.00000   0.00000   0.60756
  20        2PZ         0.00000   0.00000   0.00000   0.00000   0.84172
  21        3S         -0.04142   0.44586   0.00000   0.00000   0.00000
  22        3PX         0.00000   0.00000   0.15414   0.00000   0.00000
  23        3PY         0.00000   0.00000   0.00000   0.19542   0.00000
  24        3PZ         0.00000   0.00000   0.00000   0.00000   0.31927
  25        4XX        -0.00058   0.00201   0.00000   0.00000   0.00000
  26        4YY        -0.00051   0.00020   0.00000   0.00000   0.00000
  27        4ZZ        -0.00033  -0.00672   0.00000   0.00000   0.00000
  28        4XY         0.00000   0.00000   0.00000   0.00000   0.00000
  29        4XZ         0.00000   0.00000   0.00000   0.00000   0.00000
  30        4YZ         0.00000   0.00000   0.00000   0.00000   0.00000
  31 3   H  1S         -0.00061   0.01194   0.01144   0.05987   0.00000
  32        2S          0.00112  -0.01415   0.00454   0.02792   0.00000
  33 4   H  1S          0.00000  -0.00001  -0.00010  -0.00010   0.00000
  34        2S         -0.00010   0.00121  -0.00305  -0.00281   0.00000
  35 5   H  1S          0.00000  -0.00003  -0.00007  -0.00001  -0.00009
  36        2S          0.00005  -0.00085  -0.00189  -0.00018  -0.00324
  37 6   H  1S          0.00000  -0.00003  -0.00007  -0.00001  -0.00008
  38        2S          0.00006  -0.00091  -0.00184  -0.00023  -0.00309
                          21        22        23        24        25
  21        3S          0.75619
  22        3PX         0.00000   0.18049
  23        3PY         0.00000   0.00000   0.25196
  24        3PZ         0.00000   0.00000   0.00000   0.48333
  25        4XX        -0.00091   0.00000   0.00000   0.00000   0.00136
  26        4YY        -0.01001   0.00000   0.00000   0.00000   0.00004
  27        4ZZ        -0.00920   0.00000   0.00000   0.00000   0.00002
  28        4XY         0.00000   0.00000   0.00000   0.00000   0.00000
  29        4XZ         0.00000   0.00000   0.00000   0.00000   0.00000
  30        4YZ         0.00000   0.00000   0.00000   0.00000   0.00000
  31 3   H  1S          0.00001   0.01127   0.08850   0.00000  -0.00067
  32        2S         -0.06345   0.00562   0.05852   0.00000  -0.00097
  33 4   H  1S          0.00072  -0.00248  -0.00281   0.00000  -0.00001
  34        2S          0.01290  -0.01125  -0.01196  -0.00001  -0.00039
  35 5   H  1S         -0.00126  -0.00148  -0.00019  -0.00285   0.00004
  36        2S         -0.00405  -0.00560  -0.00069  -0.01489   0.00001
  37 6   H  1S         -0.00132  -0.00145  -0.00024  -0.00271   0.00004
  38        2S         -0.00460  -0.00535  -0.00091  -0.01420   0.00003
                          26        27        28        29        30
  26        4YY         0.00422
  27        4ZZ        -0.00005   0.00044
  28        4XY         0.00000   0.00000   0.00159
  29        4XZ         0.00000   0.00000   0.00000   0.00031
  30        4YZ         0.00000   0.00000   0.00000   0.00000   0.00132
  31 3   H  1S          0.01070  -0.00045   0.00143   0.00000   0.00000
  32        2S          0.00754  -0.00012   0.00013   0.00000   0.00000
  33 4   H  1S         -0.00003   0.00000   0.00005   0.00000   0.00000
  34        2S         -0.00060  -0.00011   0.00006   0.00000   0.00000
  35 5   H  1S          0.00000   0.00000   0.00001   0.00003   0.00000
  36        2S          0.00013   0.00002   0.00005   0.00006   0.00004
  37 6   H  1S          0.00000   0.00000   0.00001   0.00003   0.00000
  38        2S          0.00016   0.00002   0.00005   0.00005   0.00004
                          31        32        33        34        35
  31 3   H  1S          0.18594
  32        2S          0.07864   0.09147
  33 4   H  1S         -0.00006  -0.00172   0.21750
  34        2S         -0.00222  -0.00885   0.11280   0.15274
  35 5   H  1S          0.00000   0.00040  -0.00049  -0.00765   0.21680
  36        2S          0.00039   0.00254  -0.00693  -0.02039   0.10929
  37 6   H  1S          0.00000   0.00041  -0.00049  -0.00758  -0.00057
  38        2S          0.00041   0.00268  -0.00683  -0.02004  -0.00874
                          36        37        38
  36        2S          0.14830
  37 6   H  1S         -0.00875   0.21669
  38        2S         -0.02918   0.10885   0.14691
     Gross orbital populations:
                           1
   1 1   C  1S          1.99173
   2        2S          0.68925
   3        2PX         0.54436
   4        2PY         0.74457
   5        2PZ         0.75160
   6        3S          0.59049
   7        3PX         0.17789
   8        3PY         0.32397
   9        3PZ         0.34438
  10        4XX         0.00315
  11        4YY         0.00788
  12        4ZZ         0.00555
  13        4XY         0.00862
  14        4XZ         0.01473
  15        4YZ         0.00519
  16 2   O  1S          1.99266
  17        2S          0.90558
  18        2PX         0.79825
  19        2PY         0.89250
  20        2PZ         1.16385
  21        3S          1.01133
  22        3PX         0.47120
  23        3PY         0.58307
  24        3PZ         0.78463
  25        4XX         0.01270
  26        4YY         0.01250
  27        4ZZ        -0.01630
  28        4XY         0.00615
  29        4XZ         0.00201
  30        4YZ         0.00148
  31 3   H  1S          0.44910
  32        2S          0.17694
  33 4   H  1S          0.53561
  34        2S          0.32633
  35 5   H  1S          0.53346
  36        2S          0.31045
  37 6   H  1S          0.53329
  38        2S          0.30986
          Condensed to atoms (all electrons):
              1          2          3          4          5          6
     1  C    4.864129   0.238137  -0.022770   0.370247   0.376529   0.377087
     2  O    0.238137   8.257717   0.220141  -0.020890  -0.036940  -0.036552
     3  H   -0.022770   0.220141   0.434691  -0.012854   0.003336   0.003496
     4  H    0.370247  -0.020890  -0.012854   0.595830  -0.035457  -0.034944
     5  H    0.376529  -0.036940   0.003336  -0.035457   0.583686  -0.047244
     6  H    0.377087  -0.036552   0.003496  -0.034944  -0.047244   0.581302
 Mulliken atomic charges:
              1
     1  C   -0.203359
     2  O   -0.621613
     3  H    0.373960
     4  H    0.138069
     5  H    0.156090
     6  H    0.156853
 Sum of Mulliken atomic charges =   0.00000
 Mulliken charges with hydrogens summed into heavy atoms:
              1
     1  C    0.247654
     2  O   -0.247654
 Sum of Mulliken charges with hydrogens summed into heavy atoms =   0.00000
 Electronic spatial extent (au):  <R**2>=             88.3439
 Charge=              0.0000 electrons
 Dipole moment (field-independent basis, Debye):
    X=             -0.9438    Y=              1.6776    Z=             -0.0031  Tot=              1.9249
 Quadrupole moment (field-independent basis, Debye-Ang):
   XX=            -12.2904   YY=            -12.0054   ZZ=            -13.5145
   XY=              2.2856   XZ=              0.0054   YZ=              0.0021
 Traceless Quadrupole moment (field-independent basis, Debye-Ang):
   XX=              0.3130   YY=              0.5981   ZZ=             -0.9111
   XY=              2.2856   XZ=              0.0054   YZ=              0.0021
 Octapole moment (field-independent basis, Debye-Ang**2):
  XXX=              4.6694  YYY=              1.6993  ZZZ=              0.0251  XYY=              2.0347
  XXY=              2.5822  XXZ=             -0.0084  XZZ=              0.1656  YZZ=             -0.3195
  YYZ=             -0.0334  XYZ=             -0.0078
 Hexadecapole moment (field-independent basis, Debye-Ang**3):
 XXXX=            -64.1326 YYYY=            -19.6395 ZZZZ=            -18.4544 XXXY=              4.0368
 XXXZ=              0.0151 YYYX=              1.5019 YYYZ=             -0.0040 ZZZX=             -0.0276
 ZZZY=              0.0074 XXYY=            -12.9702 XXZZ=            -14.1838 YYZZ=             -6.6158
 XXYZ=              0.0150 YYXZ=              0.0390 ZZXY=              0.8764
 N-N= 3.869203123715D+01 E-N=-3.484602475536D+02  KE= 1.144923293001D+02
 Orbital energies and kinetic energies (alpha):
                                 1                 2
   1         O               -19.141287         29.033451
   2         O               -10.227511         15.885178
   3         O                -0.969146          2.518591
   4         O                -0.677662          1.528601
   5         O                -0.478402          1.514316
   6         O                -0.428660          1.092058
   7         O                -0.415423          1.386812
   8         O                -0.323725          2.046736
   9         O                -0.259502          2.240422
  10         V                 0.049657          1.292431
  11         V                 0.123769          1.253242
  12         V                 0.154208          1.507229
  13         V                 0.176014          0.957243
  14         V                 0.189509          1.374942
  15         V                 0.519590          2.251740
  16         V                 0.557469          1.635264
  17         V                 0.563715          1.704490
  18         V                 0.774013          2.596498
  19         V                 0.854855          2.656500
  20         V                 0.860808          2.655835
  21         V                 0.888507          2.534694
  22         V                 0.936983          2.785507
  23         V                 0.974935          3.380459
  24         V                 1.028730          2.417719
  25         V                 1.149862          3.208422
  26         V                 1.447616          2.569947
  27         V                 1.495837          2.604262
  28         V                 1.562321          2.631297
  29         V                 1.781143          2.803488
  30         V                 1.953910          3.679546
  31         V                 2.127421          3.403525
  32         V                 2.149459          3.408497
  33         V                 2.201891          3.453218
  34         V                 2.325492          3.594728
  35         V                 2.414348          3.720137
  36         V                 2.751228          4.405173
  37         V                 3.654861         10.054272
  38         V                 4.224316         10.087376
 Total kinetic energy from orbitals= 1.144923293001D+02
 Calling FoFJK, ICntrl=      2127 FMM=F ISym2X=0 I1Cent= 0 IOpClX= 0 NMat=1 NMatS=1 NMatT=0.
 ***** Axes restored to original set *****
 -------------------------------------------------------------------
 Center     Atomic                   Forces (Hartrees/Bohr)
 Number     Number              X              Y              Z
 -------------------------------------------------------------------
      1        6           0.010539242    0.000158561    0.039477284
      2        8           0.046454944   -0.000227668   -0.010674280
      3        1          -0.055305476    0.000074505   -0.026376435
      4        1           0.001363439   -0.000102462   -0.004642786
      5        1          -0.001469705    0.002988252    0.000922623
      6        1          -0.001582445   -0.002891188    0.001293594
 -------------------------------------------------------------------
 Cartesian Forces:  Max     0.055305476 RMS     0.020741706

 GradGradGradGradGradGradGradGradGradGradGradGradGradGradGradGradGradGrad
 Berny optimization.
 Internal  Forces:  Max     0.060935821 RMS     0.018915022
 Search for a local minimum.
 Step number   1 out of a maximum of   25
 All quantities printed in internal units (Hartrees-Bohrs-Radians)
 Mixed Optimization -- RFO/linear search
 Second derivative matrix not updated -- first step.
 The second derivative matrix:
                          R1        R2        R3        R4        R5
           R1           0.32377
           R2           0.00000   0.34813
           R3           0.00000   0.00000   0.34813
           R4           0.00000   0.00000   0.00000   0.34813
           R5           0.00000   0.00000   0.00000   0.00000   0.39877
           A1           0.00000   0.00000   0.00000   0.00000   0.00000
           A2           0.00000   0.00000   0.00000   0.00000   0.00000
           A3           0.00000   0.00000   0.00000   0.00000   0.00000
           A4           0.00000   0.00000   0.00000   0.00000   0.00000
           A5           0.00000   0.00000   0.00000   0.00000   0.00000
           A6           0.00000   0.00000   0.00000   0.00000   0.00000
           A7           0.00000   0.00000   0.00000   0.00000   0.00000
           D1           0.00000   0.00000   0.00000   0.00000   0.00000
           D2           0.00000   0.00000   0.00000   0.00000   0.00000
           D3           0.00000   0.00000   0.00000   0.00000   0.00000
                          A1        A2        A3        A4        A5
           A1           0.16000
           A2           0.00000   0.16000
           A3           0.00000   0.00000   0.16000
           A4           0.00000   0.00000   0.00000   0.16000
           A5           0.00000   0.00000   0.00000   0.00000   0.16000
           A6           0.00000   0.00000   0.00000   0.00000   0.00000
           A7           0.00000   0.00000   0.00000   0.00000   0.00000
           D1           0.00000   0.00000   0.00000   0.00000   0.00000
           D2           0.00000   0.00000   0.00000   0.00000   0.00000
           D3           0.00000   0.00000   0.00000   0.00000   0.00000
                          A6        A7        D1        D2        D3
           A6           0.16000
           A7           0.00000   0.16000
           D1           0.00000   0.00000   0.00369
           D2           0.00000   0.00000   0.00000   0.00369
           D3           0.00000   0.00000   0.00000   0.00000   0.00369
 ITU=  0
     Eigenvalues ---    0.00369   0.09988   0.09988   0.16000   0.16000
     Eigenvalues ---    0.16000   0.16000   0.32377   0.34813   0.34813
     Eigenvalues ---    0.34813   0.39877
 RFO step:  Lambda=-1.46121436D-02 EMin= 3.68983918D-03
 Linear search not attempted -- first point.
 Iteration  1 RMS(Cart)=  0.07198926 RMS(Int)=  0.00154291
 Iteration  2 RMS(Cart)=  0.00162668 RMS(Int)=  0.00019169
 Iteration  3 RMS(Cart)=  0.00000448 RMS(Int)=  0.00019165
 Iteration  4 RMS(Cart)=  0.00000000 RMS(Int)=  0.00019165
 Variable       Old X    -DE/DX   Delta X   Delta X   Delta X     New X
                                 (Linear)    (Quad)   (Total)
    R1        2.83459  -0.03705   0.00000  -0.10949  -0.10949   2.72510
    R2        2.05980   0.00284   0.00000   0.00782   0.00782   2.06762
    R3        2.05980   0.00283   0.00000   0.00780   0.00780   2.06760
    R4        2.05980   0.00267   0.00000   0.00737   0.00737   2.06717
    R5        1.98421  -0.06094   0.00000  -0.14741  -0.14741   1.83680
    A1        1.91063   0.00749   0.00000   0.04577   0.04585   1.95648
    A2        1.91063  -0.00360   0.00000  -0.02186  -0.02202   1.88862
    A3        1.91063  -0.00428   0.00000  -0.02611  -0.02624   1.88439
    A4        1.91063  -0.00060   0.00000  -0.00023  -0.00018   1.91046
    A5        1.91063  -0.00057   0.00000  -0.00075  -0.00064   1.91000
    A6        1.91063   0.00156   0.00000   0.00317   0.00277   1.91340
    A7        1.91063  -0.01276   0.00000  -0.07308  -0.07308   1.83755
    D1        0.02206   0.00017   0.00000   0.00364   0.00368   0.02575
    D2       -2.07233  -0.00147   0.00000  -0.01073  -0.01035  -2.08268
    D3        2.11646   0.00144   0.00000   0.01476   0.01433   2.13079
         Item               Value     Threshold  Converged?
 Maximum Force            0.060936     0.000450     NO 
 RMS     Force            0.018915     0.000300     NO 
 Maximum Displacement     0.190592     0.001800     NO 
 RMS     Displacement     0.071219     0.001200     NO 
 Predicted change in Energy=-7.617508D-03
 GradGradGradGradGradGradGradGradGradGradGradGradGradGradGradGradGradGrad

                          Input orientation:                          
 ---------------------------------------------------------------------
 Center     Atomic      Atomic             Coordinates (Angstroms)
 Number     Number       Type             X           Y           Z
 ---------------------------------------------------------------------
      1          6           0        0.023756    0.000280    0.032163
      2          8           0       -0.005543   -0.001225    1.473924
      3          1           0        0.926672    0.000680    1.749142
      4          1           0        1.045396   -0.023042   -0.358790
      5          1           0       -0.480398    0.905567   -0.319119
      6          1           0       -0.519933   -0.882260   -0.317322
 ---------------------------------------------------------------------
                    Distance matrix (angstroms):
                    1          2          3          4          5
     1  C    0.000000
     2  O    1.442059   0.000000
     3  H    1.939916   0.971995   0.000000
     4  H    1.094137   2.112768   2.111406   0.000000
     5  H    1.094127   2.064646   2.660145   1.786599   0.000000
     6  H    1.093899   2.061403   2.672550   1.786121   1.788265
                    6
     6  H    0.000000
 Stoichiometry    CH4O
 Framework group  C1[X(CH4O)]
 Deg. of freedom    12
 Full point group                 C1      NOp   1
 Largest Abelian subgroup         C1      NOp   1
 Largest concise Abelian subgroup C1      NOp   1
                         Standard orientation:                         
 ---------------------------------------------------------------------
 Center     Atomic      Atomic             Coordinates (Angstroms)
 Number     Number       Type             X           Y           Z
 ---------------------------------------------------------------------
      1          6           0       -0.676229    0.017721    0.000062
      2          8           0        0.758727   -0.125232    0.000072
      3          1           0        1.106630    0.782367    0.000492
      4          1           0       -0.985344    1.066970   -0.025589
      5          1           0       -1.066970   -0.455368    0.905945
      6          1           0       -1.066759   -0.498437   -0.881801
 ---------------------------------------------------------------------
 Rotational constants (GHZ):    125.4198239     24.3848302     23.4714092
 Standard basis: 6-31G(d) (6D, 7F)
 There are    38 symmetry adapted basis functions of A   symmetry.
 Integral buffers will be    131072 words long.
 Raffenetti 2 integral format.
 Two-electron integral symmetry is turned on.
    38 basis functions,    72 primitive gaussians,    38 cartesian basis functions
     9 alpha electrons        9 beta electrons
       nuclear repulsion energy        39.9562287509 Hartrees.
 NAtoms=    6 NActive=    6 NUniq=    6 SFac= 1.00D+00 NAtFMM=   60 NAOKFM=F Big=F
 One-electron integrals computed using PRISM.
 NBasis=    38 RedAO= T  NBF=    38
 NBsUse=    38 1.00D-06 NBFU=    38
 Initial guess read from the read-write file.
 B after Tr=     0.000000    0.000000    0.000000
         Rot=    1.000000    0.000000    0.000000    0.000000 Ang=   0.00 deg.
 Initial guess orbital symmetries:
       Occupied  (A) (A) (A) (A) (A) (A) (A) (A) (A)
       Virtual   (A) (A) (A) (A) (A) (A) (A) (A) (A) (A) (A) (A)
                 (A) (A) (A) (A) (A) (A) (A) (A) (A) (A) (A) (A)
                 (A) (A) (A) (A) (A)
 Harris functional with IExCor=  402 diagonalized for initial guess.
 ExpMin= 1.61D-01 ExpMax= 5.48D+03 ExpMxC= 8.25D+02 IAcc=1 IRadAn=         1 AccDes= 0.00D+00
 HarFok:  IExCor=  402 AccDes= 0.00D+00 IRadAn=         1 IDoV= 1
 ScaDFX=  1.000000  1.000000  1.000000  1.000000
 FoFCou: FMM=F IPFlag=           0 FMFlag=      100000 FMFlg1=           0
         NFxFlg=           0 DoJE=T BraDBF=F KetDBF=T FulRan=T
         Omega=  0.000000  0.000000  1.000000  0.000000  0.000000 ICntrl=     500 IOpCl=  0
         NMat0=    1 NMatS0=    1 NMatT0=    0 NMatD0=    1 NMtDS0=    0 NMtDT0=    0
         I1Cent=           4 NGrid=           0.
 Petite list used in FoFCou.
 Requested convergence on RMS density matrix=1.00D-08 within 128 cycles.
 Requested convergence on MAX density matrix=1.00D-06.
 Requested convergence on             energy=1.00D-06.
 No special actions if energy rises.
 Keep R1 ints in memory in canonical form, NReq=1206170.
 Integral accuracy reduced to 1.0D-05 until final iterations.
 Initial convergence to 1.0D-05 achieved.  Increase integral accuracy.
 SCF Done:  E(RB3LYP) =  -115.711461493     A.U. after   11 cycles
             Convg  =    0.4088D-08             -V/T =  2.0089
 Calling FoFJK, ICntrl=      2127 FMM=F ISym2X=0 I1Cent= 0 IOpClX= 0 NMat=1 NMatS=1 NMatT=0.
 ***** Axes restored to original set *****
 -------------------------------------------------------------------
 Center     Atomic                   Forces (Hartrees/Bohr)
 Number     Number              X              Y              Z
 -------------------------------------------------------------------
      1        6          -0.005442129   -0.000004039    0.014555381
      2        8           0.011528697   -0.000169889   -0.007089967
      3        1          -0.006311437    0.000141009    0.003374458
      4        1           0.000431171   -0.000057580   -0.002112956
      5        1          -0.000065089    0.000285250   -0.004348277
      6        1          -0.000141213   -0.000194751   -0.004378639
 -------------------------------------------------------------------
 Cartesian Forces:  Max     0.014555381 RMS     0.005368641

 GradGradGradGradGradGradGradGradGradGradGradGradGradGradGradGradGradGrad
 Berny optimization.
 Using GEDIIS/GDIIS optimizer.
 Internal  Forces:  Max     0.009232455 RMS     0.003799612
 Search for a local minimum.
 Step number   2 out of a maximum of   25
 All quantities printed in internal units (Hartrees-Bohrs-Radians)
 Mixed Optimization -- RFO/linear search
 Update second derivatives using D2CorX and points    1    2
 DE= -8.00D-03 DEPred=-7.62D-03 R= 1.05D+00
 SS=  1.41D+00  RLast= 2.07D-01 DXNew= 5.0454D-01 6.2097D-01
 Trust test= 1.05D+00 RLast= 2.07D-01 DXMaxT set to 5.05D-01
 The second derivative matrix:
                          R1        R2        R3        R4        R5
           R1           0.31108
           R2           0.00301   0.34779
           R3           0.00417  -0.00039   0.34769
           R4           0.00407  -0.00038  -0.00041   0.34773
           R5          -0.01934   0.00490   0.00686   0.00670   0.36955
           A1           0.00238  -0.00061  -0.00085  -0.00083   0.00359
           A2           0.01071  -0.00030  -0.00001   0.00003   0.01818
           A3           0.01076  -0.00026   0.00006   0.00010   0.01831
[...]
  37 6   H  1S          0.00450  -0.00040   0.00631   0.00000   0.00000
  38        2S          0.00822  -0.00028   0.00530   0.00000   0.00000
                          31        32        33        34        35
  31 3   H  1S          0.19892
  32        2S          0.10412   0.07058
  33 4   H  1S         -0.01360  -0.00964   0.21787
  34        2S         -0.02084  -0.01831   0.18133   0.17711
  35 5   H  1S         -0.01361  -0.00965  -0.03331  -0.06474   0.21787
  36        2S         -0.02085  -0.01832  -0.06474  -0.07804   0.18134
  37 6   H  1S          0.03554   0.04745  -0.02528  -0.05121  -0.02528
  38        2S          0.05518   0.05295  -0.04482  -0.05397  -0.04482
                          36        37        38
  36        2S          0.17711
  37 6   H  1S         -0.05121   0.21600
  38        2S         -0.05396   0.15862   0.12901
    Full Mulliken population analysis:
                           1         2         3         4         5
   1 1   C  1S          2.04929
   2        2S         -0.01250   0.31187
   3        2PX         0.00000   0.00000   0.31536
   4        2PY         0.00000   0.00000   0.00000   0.43190
   5        2PZ         0.00000   0.00000   0.00000   0.00000   0.42333
   6        3S         -0.02943   0.21430   0.00000   0.00000   0.00000
   7        3PX         0.00000   0.00000   0.06568   0.00000   0.00000
   8        3PY         0.00000   0.00000   0.00000   0.10874   0.00000
   9        3PZ         0.00000   0.00000   0.00000   0.00000   0.09498
  10        4XX        -0.00126  -0.00331   0.00000   0.00000   0.00000
  11        4YY        -0.00148   0.00020   0.00000   0.00000   0.00000
  12        4ZZ        -0.00144  -0.00077   0.00000   0.00000   0.00000
  13        4XY         0.00000   0.00000   0.00000   0.00000   0.00000
  14        4XZ         0.00000   0.00000   0.00000   0.00000   0.00000
  15        4YZ         0.00000   0.00000   0.00000   0.00000   0.00000
  16 2   O  1S          0.00000  -0.00003  -0.00067   0.00000   0.00000
  17        2S         -0.00002   0.00063   0.01449   0.00007   0.00000
  18        2PX        -0.00033   0.01736   0.06575   0.00062   0.00000
  19        2PY         0.00000   0.00025   0.00126  -0.00040   0.00000
  20        2PZ         0.00000   0.00000   0.00000   0.00000   0.00017
  21        3S          0.00083  -0.01215   0.00694  -0.00089   0.00000
  22        3PX        -0.00375   0.03545   0.06449   0.00089   0.00000
  23        3PY        -0.00009   0.00085   0.00258  -0.00592   0.00000
  24        3PZ         0.00000   0.00000   0.00000   0.00000  -0.00563
  25        4XX        -0.00030   0.00392   0.00411   0.00027   0.00000
  26        4YY         0.00000  -0.00006   0.00036  -0.00001   0.00000
  27        4ZZ         0.00000  -0.00014  -0.00013   0.00000   0.00000
  28        4XY        -0.00002   0.00030   0.00098   0.00138   0.00000
  29        4XZ         0.00000   0.00000   0.00000   0.00000   0.00130
  30        4YZ         0.00000   0.00000   0.00000   0.00000   0.00003
  31 3   H  1S          0.00000  -0.00035  -0.00134  -0.00024   0.00000
  32        2S          0.00008  -0.00087  -0.00704  -0.00213   0.00000
  33 4   H  1S         -0.00171   0.02842   0.00916   0.02255   0.06592
  34        2S         -0.00073   0.01153   0.00520   0.01465   0.04464
  35 5   H  1S         -0.00171   0.02842   0.00916   0.02257   0.06591
  36        2S         -0.00073   0.01153   0.00520   0.01467   0.04463
  37 6   H  1S         -0.00180   0.03080   0.01244   0.08760   0.00000
  38        2S         -0.00123   0.01894   0.00534   0.05221   0.00000
                           6         7         8         9        10
   6        3S          0.23804
   7        3PX         0.00000   0.04553
   8        3PY         0.00000   0.00000   0.08836
   9        3PZ         0.00000   0.00000   0.00000   0.06952
  10        4XX        -0.00416   0.00000   0.00000   0.00000   0.00277
  11        4YY         0.00136   0.00000   0.00000   0.00000  -0.00034
  12        4ZZ         0.00120   0.00000   0.00000   0.00000  -0.00037
  13        4XY         0.00000   0.00000   0.00000   0.00000   0.00000
  14        4XZ         0.00000   0.00000   0.00000   0.00000   0.00000
  15        4YZ         0.00000   0.00000   0.00000   0.00000   0.00000
  16 2   O  1S          0.00078  -0.00012  -0.00004   0.00000  -0.00017
  17        2S         -0.01246   0.00171   0.00039   0.00000   0.00421
  18        2PX         0.01480   0.01606  -0.00058   0.00000   0.00625
  19        2PY         0.00026   0.00041   0.00355   0.00000   0.00015
  20        2PZ         0.00000   0.00000   0.00000   0.00688   0.00000
  21        3S         -0.04774  -0.01123   0.00074   0.00000   0.00557
  22        3PX         0.02909   0.01520  -0.00097   0.00000   0.00593
  23        3PY         0.00086   0.00107   0.00425   0.00000   0.00022
  24        3PZ         0.00000   0.00000   0.00000   0.01412   0.00000
  25        4XX         0.00358   0.00127   0.00005   0.00000   0.00039
  26        4YY        -0.00035   0.00015  -0.00003   0.00000   0.00007
  27        4ZZ        -0.00010   0.00013   0.00001   0.00000  -0.00004
  28        4XY         0.00013   0.00010   0.00098   0.00000   0.00007
  29        4XZ         0.00000   0.00000   0.00000   0.00068   0.00000
  30        4YZ         0.00000   0.00000   0.00000   0.00005   0.00000
  31 3   H  1S         -0.00290  -0.00553   0.00000   0.00000   0.00002
  32        2S         -0.00013  -0.00902  -0.00215   0.00000  -0.00068
  33 4   H  1S          0.03730   0.00503   0.01390   0.03473  -0.00113
  34        2S          0.01790   0.00382   0.01254   0.03392  -0.00182
  35 5   H  1S          0.03730   0.00503   0.01391   0.03472  -0.00113
  36        2S          0.01789   0.00382   0.01255   0.03391  -0.00182
  37 6   H  1S          0.03633   0.00931   0.05319   0.00000  -0.00106
  38        2S          0.02299   0.00634   0.04906   0.00000  -0.00124
                          11        12        13        14        15
  11        4YY         0.00139
  12        4ZZ         0.00005   0.00143
  13        4XY         0.00000   0.00000   0.00176
  14        4XZ         0.00000   0.00000   0.00000   0.00222
  15        4YZ         0.00000   0.00000   0.00000   0.00000   0.00107
  16 2   O  1S          0.00000   0.00000  -0.00001   0.00000   0.00000
  17        2S         -0.00018  -0.00016   0.00023   0.00000   0.00000
  18        2PX        -0.00054  -0.00056   0.00012   0.00000   0.00000
  19        2PY         0.00001  -0.00002   0.00193   0.00000   0.00000
  20        2PZ         0.00000   0.00000   0.00000   0.00304   0.00006
  21        3S         -0.00101  -0.00036   0.00047   0.00000   0.00000
  22        3PX        -0.00262  -0.00303  -0.00002   0.00000   0.00000
  23        3PY         0.00000  -0.00014   0.00311   0.00000   0.00000
  24        3PZ         0.00000   0.00000   0.00000   0.00574   0.00014
  25        4XX        -0.00004  -0.00009   0.00000   0.00000   0.00000
  26        4YY         0.00000  -0.00001   0.00004   0.00000   0.00000
  27        4ZZ         0.00000   0.00001   0.00000   0.00000   0.00000
  28        4XY         0.00002   0.00000  -0.00006   0.00000   0.00000
  29        4XZ         0.00000   0.00000   0.00000   0.00008  -0.00001
  30        4YZ         0.00000   0.00000   0.00000   0.00005  -0.00001
  31 3   H  1S          0.00002   0.00000   0.00026   0.00000   0.00000
  32        2S          0.00045   0.00003   0.00044   0.00000   0.00000
  33 4   H  1S         -0.00029   0.00266   0.00049   0.00188   0.00258
  34        2S         -0.00068   0.00279   0.00014   0.00056   0.00062
  35 5   H  1S         -0.00028   0.00266   0.00049   0.00188   0.00258
  36        2S         -0.00068   0.00279   0.00014   0.00056   0.00062
  37 6   H  1S          0.00534  -0.00083   0.00273   0.00000   0.00000
  38        2S          0.00421  -0.00233   0.00063   0.00000   0.00000
                          16        17        18        19        20
  16 2   O  1S          2.07467
  17        2S         -0.04119   0.50540
  18        2PX         0.00000   0.00000   0.54984
  19        2PY         0.00000   0.00000   0.00000   0.62884
  20        2PZ         0.00000   0.00000   0.00000   0.00000   0.83991
  21        3S         -0.03937   0.42892   0.00000   0.00000   0.00000
  22        3PX         0.00000   0.00000   0.15352   0.00000   0.00000
  23        3PY         0.00000   0.00000   0.00000   0.19383   0.00000
  24        3PZ         0.00000   0.00000   0.00000   0.00000   0.31843
  25        4XX        -0.00058   0.00168   0.00000   0.00000   0.00000
  26        4YY        -0.00055   0.00146   0.00000   0.00000   0.00000
  27        4ZZ        -0.00038  -0.00533   0.00000   0.00000   0.00000
  28        4XY         0.00000   0.00000   0.00000   0.00000   0.00000
  29        4XZ         0.00000   0.00000   0.00000   0.00000   0.00000
  30        4YZ         0.00000   0.00000   0.00000   0.00000   0.00000
  31 3   H  1S         -0.00107   0.01870   0.01285   0.07698   0.00000
  32        2S          0.00117  -0.01502   0.00411   0.02454   0.00000
  33 4   H  1S          0.00000  -0.00002  -0.00011  -0.00004  -0.00011
  34        2S         -0.00006   0.00067  -0.00313  -0.00118  -0.00345
  35 5   H  1S          0.00000  -0.00002  -0.00011  -0.00004  -0.00011
  36        2S         -0.00006   0.00067  -0.00313  -0.00118  -0.00345
  37 6   H  1S          0.00000  -0.00008  -0.00009  -0.00011   0.00000
  38        2S          0.00017  -0.00232  -0.00138  -0.00239   0.00000
                          21        22        23        24        25
  21        3S          0.71799
  22        3PX         0.00000   0.17463
  23        3PY         0.00000   0.00000   0.24116
  24        3PZ         0.00000   0.00000   0.00000   0.48234
  25        4XX        -0.00103   0.00000   0.00000   0.00000   0.00130
  26        4YY        -0.00963   0.00000   0.00000   0.00000  -0.00001
  27        4ZZ        -0.00626   0.00000   0.00000   0.00000   0.00001
  28        4XY         0.00000   0.00000   0.00000   0.00000   0.00000
  29        4XZ         0.00000   0.00000   0.00000   0.00000   0.00000
  30        4YZ         0.00000   0.00000   0.00000   0.00000   0.00000
  31 3   H  1S          0.00222   0.00981   0.09244   0.00000  -0.00094
  32        2S         -0.06184   0.00460   0.04838   0.00000  -0.00115
  33 4   H  1S          0.00019  -0.00233  -0.00099  -0.00335   0.00001
  34        2S          0.00945  -0.01090  -0.00483  -0.01592  -0.00027
  35 5   H  1S          0.00019  -0.00233  -0.00099  -0.00335   0.00001
  36        2S          0.00945  -0.01090  -0.00484  -0.01592  -0.00027
  37 6   H  1S         -0.00325  -0.00097  -0.00239   0.00000   0.00011
  38        2S         -0.01579  -0.00187  -0.00891   0.00000   0.00026
                          26        27        28        29        30
  26        4YY         0.00484
  27        4ZZ        -0.00011   0.00034
  28        4XY         0.00000   0.00000   0.00199
  29        4XZ         0.00000   0.00000   0.00000   0.00044
  30        4YZ         0.00000   0.00000   0.00000   0.00000   0.00156
  31 3   H  1S          0.01394  -0.00064   0.00132   0.00000   0.00000
  32        2S          0.00729  -0.00028   0.00010   0.00000   0.00000
  33 4   H  1S         -0.00001   0.00000   0.00001   0.00004  -0.00001
  34        2S         -0.00046  -0.00001  -0.00003   0.00007  -0.00008
  35 5   H  1S         -0.00001   0.00000   0.00001   0.00004  -0.00001
  36        2S         -0.00046  -0.00001  -0.00003   0.00007  -0.00008
  37 6   H  1S          0.00003   0.00000   0.00010   0.00000   0.00000
  38        2S          0.00082  -0.00002   0.00025   0.00000   0.00000
                          31        32        33        34        35
  31 3   H  1S          0.19892
  32        2S          0.06854   0.07058
  33 4   H  1S         -0.00002  -0.00047   0.21787
  34        2S         -0.00102  -0.00369   0.11937   0.17711
  35 5   H  1S         -0.00002  -0.00047  -0.00060  -0.00956   0.21787
  36        2S         -0.00102  -0.00370  -0.00956  -0.03113   0.11937
  37 6   H  1S          0.00000   0.00075  -0.00047  -0.00768  -0.00047
  38        2S          0.00087   0.00530  -0.00673  -0.02175  -0.00673
                          36        37        38
  36        2S          0.17711
  37 6   H  1S         -0.00768   0.21600
  38        2S         -0.02175   0.10442   0.12901
     Gross orbital populations:
                           1
   1 1   C  1S          1.99169
   2        2S          0.68458
   3        2PX         0.57932
   4        2PY         0.74853
   5        2PZ         0.73527
   6        3S          0.57687
   7        3PX         0.15476
   8        3PY         0.35843
   9        3PZ         0.32351
  10        4XX         0.00712
  11        4YY         0.00491
  12        4ZZ         0.00351
  13        4XY         0.01290
  14        4XZ         0.01602
  15        4YZ         0.00764
  16 2   O  1S          1.99248
  17        2S          0.90241
  18        2PX         0.83131
  19        2PY         0.92666
  20        2PZ         1.16138
  21        3S          0.97238
  22        3PX         0.45392
  23        3PY         0.55966
  24        3PZ         0.77659
  25        4XX         0.01230
  26        4YY         0.01728
  27        4ZZ        -0.01295
  28        4XY         0.00760
  29        4XZ         0.00270
  30        4YZ         0.00151
  31 3   H  1S          0.48181
  32        2S          0.12773
  33 4   H  1S          0.53419
  34        2S          0.33658
  35 5   H  1S          0.53419
  36        2S          0.33658
  37 6   H  1S          0.53224
  38        2S          0.30638
          Condensed to atoms (all electrons):
              1          2          3          4          5          6
     1  C    4.846755   0.267229  -0.031090   0.366597   0.366596   0.388976
     2  O    0.267229   8.212034   0.237524  -0.036864  -0.036859  -0.037851
     3  H   -0.031090   0.237524   0.406588  -0.005197  -0.005202   0.006924
     4  H    0.366597  -0.036864  -0.005197   0.633719  -0.050843  -0.036636
     5  H    0.366596  -0.036859  -0.005202  -0.050843   0.633721  -0.036636
     6  H    0.388976  -0.037851   0.006924  -0.036636  -0.036636   0.553850
 Mulliken atomic charges:
              1
     1  C   -0.205063
     2  O   -0.605213
     3  H    0.390454
     4  H    0.129225
     5  H    0.129223
     6  H    0.161374
 Sum of Mulliken atomic charges =   0.00000
 Mulliken charges with hydrogens summed into heavy atoms:
              1
     1  C    0.214759
     2  O   -0.214759
 Sum of Mulliken charges with hydrogens summed into heavy atoms =   0.00000
 Electronic spatial extent (au):  <R**2>=             84.0880
 Charge=              0.0000 electrons
 Dipole moment (field-independent basis, Debye):
    X=             -0.7471    Y=              1.5203    Z=              0.0001  Tot=              1.6940
 Quadrupole moment (field-independent basis, Debye-Ang):
   XX=            -12.5922   YY=            -11.9891   ZZ=            -13.5824
   XY=              2.2245   XZ=              0.0001   YZ=              0.0000
 Traceless Quadrupole moment (field-independent basis, Debye-Ang):
   XX=              0.1291   YY=              0.7321   ZZ=             -0.8612
   XY=              2.2245   XZ=              0.0001   YZ=              0.0000
 Octapole moment (field-independent basis, Debye-Ang**2):
  XXX=              4.6550  YYY=              0.5126  ZZZ=              0.0000  XYY=              1.9146
  XXY=              2.1620  XXZ=              0.0002  XZZ=              0.6440  YZZ=              0.4977
  YYZ=              0.0002  XYZ=              0.0002
 Hexadecapole moment (field-independent basis, Debye-Ang**3):
 XXXX=            -59.8901 YYYY=            -19.3407 ZZZZ=            -19.1002 XXXY=              3.6149
 XXXZ=              0.0001 YYYX=              2.7294 YYYZ=              0.0000 ZZZX=              0.0001
 ZZZY=              0.0000 XXYY=            -12.1386 XXZZ=            -13.7553 YYZZ=             -6.5686
 XXYZ=              0.0000 YYXZ=             -0.0001 ZZXY=             -0.0204
 N-N= 4.021977163846D+01 E-N=-3.515504927066D+02  KE= 1.147021773020D+02
 Orbital energies and kinetic energies (alpha):
                                 1                 2
   1         O               -19.140118         29.029704
   2         O               -10.224695         15.884352
   3         O                -1.010517          2.517386
   4         O                -0.678249          1.559329
   5         O                -0.502337          1.614572
   6         O                -0.434016          1.142736
   7         O                -0.419193          1.485745
   8         O                -0.330249          1.941177
   9         O                -0.264527          2.176088
  10         V                 0.075245          1.171867
  11         V                 0.130756          1.197610
  12         V                 0.166710          1.020692
  13         V                 0.175156          1.002481
  14         V                 0.205934          1.747876
  15         V                 0.534269          2.441199
  16         V                 0.567277          1.721843
  17         V                 0.577417          1.718929
  18         V                 0.786335          2.452200
  19         V                 0.848774          2.617001
  20         V                 0.869116          2.998222
  21         V                 0.901700          2.744162
  22         V                 0.953815          2.558652
  23         V                 0.977239          3.372826
  24         V                 1.022257          2.386139
  25         V                 1.114487          3.210678
  26         V                 1.462711          2.584749
  27         V                 1.502736          2.639739
  28         V                 1.585194          2.659720
  29         V                 1.743750          2.802710
  30         V                 2.039269          3.681464
  31         V                 2.113741          3.555629
  32         V                 2.128378          3.410665
  33         V                 2.349727          3.638003
  34         V                 2.403463          3.664070
  35         V                 2.446022          3.742188
  36         V                 2.792279          4.534783
  37         V                 3.697372         10.229859
  38         V                 4.213555         10.078824
 Total kinetic energy from orbitals= 1.147021773020D+02
 B after Tr=    -0.072816    0.111301   -0.001603
         Rot=    0.997710    0.057052    0.020558    0.029944 Ang=   7.76 deg.
 Final structure in terms of initial Z-matrix:
 C
 O,1,B1
 H,2,B2,1,A1
 H,1,B3,2,A2,3,D1,0
 H,1,B4,2,A3,3,D2,0
 H,1,B5,2,A4,3,D3,0
      Variables:
 B1=1.4185355
 B2=0.96869314
 B3=1.10127499
 B4=1.10127116
 B5=1.09342083
 A1=107.66893774
 A2=112.70383219
 A3=112.70325165
 A4=106.69591692
 D1=61.54952401
 D2=-61.53129781
 D3=-179.9884647
 1\1\GINC-CL058\FOpt\RB3LYP\6-31G(d)\C1H4O1\OSTUEKER\21-Jun-2016\0\\#N 
 B3LYP/6-31G(d) OPT GFINPUT POP=FULL Geom=Connectivity\\CH4O\\0,1\C,0.0
 210906186,0.0235895974,0.056311276\O,0.1137404523,-0.2314103958,1.4486
 596406\H,0.7092460665,0.430735226,1.8298454844\H,0.9908113069,-0.06665
 29723,-0.4577944195\H,-0.3994635632,1.0166255021,-0.1668748117\H,-0.65
 35220202,-0.7311234939,-0.3570590853\\Version=AM64L-G09RevC.01\State=1
 -A\HF=-115.7144052\RMSD=5.693e-09\RMSF=1.907e-05\Dipole=0.3301874,0.50
 15723,-0.2890867\Quadrupole=0.0786279,-0.1600875,0.0814596,0.6281805,1
 .0971598,1.2146512\PG=C01 [X(C1H4O1)]\\@


 COLLEGE PROFESSOR: SOMEONE WHO TALKS IN OTHER PEOPLE'S SLEEP.
 Job cpu time:  0 days  0 hours  0 minutes 52.7 seconds.
 File lengths (MBytes):  RWF=      5 Int=      0 D2E=      0 Chk=      1 Scr=      1
 Normal termination of Gaussian 09 at Tue Jun 21 16:35:00 2016.
